/*--------------------------------*- C++ -*----------------------------------*\
| =========                 |                                                 |
| \\      /  F ield         | OpenFOAM: The Open Source CFD Toolbox           |
|  \\    /   O peration     | Version:  4.0                                   |
|   \\  /    A nd           | Web:      www.OpenFOAM.org                      |
|    \\/     M anipulation  |                                                 |
\*---------------------------------------------------------------------------*/
FoamFile
{
    version     2.0;
    format      ascii;
    class       volScalarField;
    location    "2.1";
    object      gradTz;
}
// * * * * * * * * * * * * * * * * * * * * * * * * * * * * * * * * * * * * * //

dimensions      [0 -1 0 1 0 0 0];

internalField   nonuniform List<scalar> 
40
(
-299.975
-299.975
-299.975
-299.975
-0.0251968
-0.0251968
-0.0251968
-0.0251968
-1.06077e-06
-1.06077e-06
-1.06077e-06
-1.06077e-06
-3.21165e-11
-3.21165e-11
-3.21165e-11
-3.21165e-11
0
0
0
0
0
0
0
0
0
0
0
0
0
0
0
0
1.19371e-11
1.19371e-11
1.19371e-11
1.19371e-11
-1.19371e-11
-1.19371e-11
-1.19371e-11
-1.19371e-11
)
;

boundaryField
{
    walls
    {
        type            calculated;
        value           nonuniform List<scalar> 
80
(
-299.975
-0.0251968
-1.06077e-06
-3.21165e-11
0
0
0
0
1.19371e-11
-1.19371e-11
-299.975
-0.0251968
-1.06077e-06
-3.21165e-11
0
0
0
0
1.19371e-11
-1.19371e-11
-299.975
-299.975
-0.0251968
-0.0251968
-1.06077e-06
-1.06077e-06
-3.21165e-11
-3.21165e-11
0
0
0
0
0
0
0
0
1.19371e-11
1.19371e-11
-1.19371e-11
-1.19371e-11
-299.975
-299.975
-0.0251968
-0.0251968
-1.06077e-06
-1.06077e-06
-3.21165e-11
-3.21165e-11
0
0
0
0
0
0
0
0
1.19371e-11
1.19371e-11
-1.19371e-11
-1.19371e-11
-299.975
-0.0251968
-1.06077e-06
-3.21165e-11
0
0
0
0
1.19371e-11
-1.19371e-11
-299.975
-0.0251968
-1.06077e-06
-3.21165e-11
0
0
0
0
1.19371e-11
-1.19371e-11
)
;
    }
    inlet
    {
        type            calculated;
        value           uniform -599.899;
    }
    outlet
    {
        type            calculated;
        value           uniform -4.77485e-11;
    }
}


// ************************************************************************* //
