/*--------------------------------*- C++ -*----------------------------------*\
| =========                 |                                                 |
| \\      /  F ield         | OpenFOAM: The Open Source CFD Toolbox           |
|  \\    /   O peration     | Version:  4.0                                   |
|   \\  /    A nd           | Web:      www.OpenFOAM.org                      |
|    \\/     M anipulation  |                                                 |
\*---------------------------------------------------------------------------*/
FoamFile
{
    version     2.0;
    format      ascii;
    class       volScalarField;
    location    "1";
    object      gradTz;
}
// * * * * * * * * * * * * * * * * * * * * * * * * * * * * * * * * * * * * * //

dimensions      [0 -1 0 1 0 0 0];

internalField   nonuniform List<scalar> 
40
(
-299.988
-299.988
-299.988
-299.988
-0.0119993
-0.0119993
-0.0119993
-0.0119993
-2.41182e-07
-2.41182e-07
-2.41182e-07
-2.41182e-07
-3.69482e-12
-3.69482e-12
-3.69482e-12
-3.69482e-12
0
0
0
0
0
0
0
0
0
0
0
0
0
0
0
0
5.68434e-12
5.68434e-12
5.68434e-12
5.68434e-12
-5.68434e-12
-5.68434e-12
-5.68434e-12
-5.68434e-12
)
;

boundaryField
{
    walls
    {
        type            calculated;
        value           nonuniform List<scalar> 
80
(
-299.988
-0.0119993
-2.41182e-07
-3.69482e-12
0
0
0
0
5.68434e-12
-5.68434e-12
-299.988
-0.0119993
-2.41182e-07
-3.69482e-12
0
0
0
0
5.68434e-12
-5.68434e-12
-299.988
-299.988
-0.0119993
-0.0119993
-2.41182e-07
-2.41182e-07
-3.69482e-12
-3.69482e-12
0
0
0
0
0
0
0
0
5.68434e-12
5.68434e-12
-5.68434e-12
-5.68434e-12
-299.988
-299.988
-0.0119993
-0.0119993
-2.41182e-07
-2.41182e-07
-3.69482e-12
-3.69482e-12
0
0
0
0
0
0
0
0
5.68434e-12
5.68434e-12
-5.68434e-12
-5.68434e-12
-299.988
-0.0119993
-2.41182e-07
-3.69482e-12
0
0
0
0
5.68434e-12
-5.68434e-12
-299.988
-0.0119993
-2.41182e-07
-3.69482e-12
0
0
0
0
5.68434e-12
-5.68434e-12
)
;
    }
    inlet
    {
        type            calculated;
        value           uniform -599.952;
    }
    outlet
    {
        type            calculated;
        value           uniform -2.27374e-11;
    }
}


// ************************************************************************* //
