# vtk DataFile Version 2.0
walls
ASCII
DATASET POLYDATA
POINTS 110 float
0 1 0 0 1 1 0.333333 1 1 0.333333 1
0 0 1 2 0.333333 1 2 0 1 3
0.333333 1 3 0 1 4 0.333333 1 4 0
1 5 0.333333 1 5 0 1 6 0.333333 1
6 0 1 7 0.333333 1 7 0 1 8
0.333333 1 8 0 1 9 0.333333 1 9 0
1 10 0.333333 1 10 0.666667 1 1 0.666667 1
0 0.666667 1 2 0.666667 1 3 0.666667 1 4
0.666667 1 5 0.666667 1 6 0.666667 1 7 0.666667
1 8 0.666667 1 9 0.666667 1 10 1 1
1 1 1 0 1 1 2 1 1 3
1 1 4 1 1 5 1 1 6 1
1 7 1 1 8 1 1 9 1 1
10 0 0 0 0 0 1 0 0.5 1
0 0.5 0 0 0 2 0 0.5 2 0
0 3 0 0.5 3 0 0 4 0 0.5
4 0 0 5 0 0.5 5 0 0 6
0 0.5 6 0 0 7 0 0.5 7 0
0 8 0 0.5 8 0 0 9 0 0.5
9 0 0 10 0 0.5 10 1 0 0
1 0.5 0 1 0.5 1 1 0 1 1
0.5 2 1 0 2 1 0.5 3 1 0
3 1 0.5 4 1 0 4 1 0.5 5
1 0 5 1 0.5 6 1 0 6 1
0.5 7 1 0 7 1 0.5 8 1 0
8 1 0.5 9 1 0 9 1 0.5 10
1 0 10 0.333333 0 0 0.333333 0 1 0.333333
0 2 0.333333 0 3 0.333333 0 4 0.333333 0
5 0.333333 0 6 0.333333 0 7 0.333333 0 8
0.333333 0 9 0.333333 0 10 0.666667 0 0 0.666667
0 1 0.666667 0 2 0.666667 0 3 0.666667 0
4 0.666667 0 5 0.666667 0 6 0.666667 0 7
0.666667 0 8 0.666667 0 9 0.666667 0 10 
POLYGONS 100 500
4 0 1 2 3 4 1 4 5 2 4
4 6 7 5 4 6 8 9 7 4
8 10 11 9 4 10 12 13 11 4
12 14 15 13 4 14 16 17 15 4
16 18 19 17 4 18 20 21 19 4
3 2 22 23 4 2 5 24 22 4
5 7 25 24 4 7 9 26 25 4
9 11 27 26 4 11 13 28 27 4
13 15 29 28 4 15 17 30 29 4
17 19 31 30 4 19 21 32 31 4
23 22 33 34 4 22 24 35 33 4
24 25 36 35 4 25 26 37 36 4
26 27 38 37 4 27 28 39 38 4
28 29 40 39 4 29 30 41 40 4
30 31 42 41 4 31 32 43 42 4
44 45 46 47 4 47 46 1 0 4
45 48 49 46 4 46 49 4 1 4
48 50 51 49 4 49 51 6 4 4
50 52 53 51 4 51 53 8 6 4
52 54 55 53 4 53 55 10 8 4
54 56 57 55 4 55 57 12 10 4
56 58 59 57 4 57 59 14 12 4
58 60 61 59 4 59 61 16 14 4
60 62 63 61 4 61 63 18 16 4
62 64 65 63 4 63 65 20 18 4
66 67 68 69 4 67 34 33 68 4
69 68 70 71 4 68 33 35 70 4
71 70 72 73 4 70 35 36 72 4
73 72 74 75 4 72 36 37 74 4
75 74 76 77 4 74 37 38 76 4
77 76 78 79 4 76 38 39 78 4
79 78 80 81 4 78 39 40 80 4
81 80 82 83 4 80 40 41 82 4
83 82 84 85 4 82 41 42 84 4
85 84 86 87 4 84 42 43 86 4
44 88 89 45 4 45 89 90 48 4
48 90 91 50 4 50 91 92 52 4
52 92 93 54 4 54 93 94 56 4
56 94 95 58 4 58 95 96 60 4
60 96 97 62 4 62 97 98 64 4
88 99 100 89 4 89 100 101 90 4
90 101 102 91 4 91 102 103 92 4
92 103 104 93 4 93 104 105 94 4
94 105 106 95 4 95 106 107 96 4
96 107 108 97 4 97 108 109 98 4
99 66 69 100 4 100 69 71 101 4
101 71 73 102 4 102 73 75 103 4
103 75 77 104 4 104 77 79 105 4
105 79 81 106 4 106 81 83 107 4
107 83 85 108 4 108 85 87 109 
CELL_DATA 100
FIELD attributes 5
patchID 1 100 float
0 0 0 0 0 0 0 0 0 0 0
0 0 0 0 0 0 0 0 0 0
0 0 0 0 0 0 0 0 0 0
0 0 0 0 0 0 0 0 0 0
0 0 0 0 0 0 0 0 0 0
0 0 0 0 0 0 0 0 0 0
0 0 0 0 0 0 0 0 0 0
0 0 0 0 0 0 0 0 0 0
0 0 0 0 0 0 0 0 0 0
0 0 0 0 0 0 0 0 0 
gradTy 1 100 float
0 0 0 0 0 0 0 0 0 0 0
0 0 0 0 0 0 0 0 0 0
0 0 0 0 0 0 0 0 0 -3.41061e-13
-3.41061e-13 0 0 0 0 0 0 0 0 0
0 0 0 0 0 0 0 0 0 2.55795e-13
8.52651e-14 0 0 0 0 7.67386e-13 9.37916e-13 0 0 0
0 0 0 0 0 -1.27898e-12 -1.19371e-12 0 0 0
0 0 0 0 0 0 0 0 0 0
0 0 0 0 0 0 0 0 0 0
0 0 0 0 0 0 0 0 0 
gradTx 1 100 float
-5.6275e-12 7.50333e-12 5.11591e-13 5.11591e-13 5.11591e-13 5.11591e-13 5.11591e-13 -6.82121e-13 5.11591e-13 3.41061e-13 1.36424e-11
1.63709e-11 5.11591e-12 1.36424e-12 -3.41061e-13 0 -8.52651e-13 -8.52651e-13 -5.11591e-13 1.02318e-12 1.92699e-11
8.69704e-12 4.26326e-12 6.82121e-13 -1.02318e-12 -5.11591e-13 -1.36424e-12 -1.7053e-13 -1.19371e-12 5.11591e-13 0
0 0 0 0 0 0 0 0 0 0
0 0 0 0 0 0 0 0 0 0
0 0 0 0 0 0 0 0 0 0
0 0 0 0 0 0 0 0 0 -6.13909e-12
7.50333e-12 5.11591e-13 5.11591e-13 5.11591e-13 5.11591e-13 5.11591e-13 -6.82121e-13 5.11591e-13 3.41061e-13 1.27898e-11
1.63709e-11 5.11591e-12 0 -3.41061e-13 0 -8.52651e-13 -8.52651e-13 1.36424e-12 1.02318e-12 1.90994e-11
8.69704e-12 4.26326e-12 -5.11591e-13 -1.02318e-12 -5.11591e-13 -1.36424e-12 -1.7053e-13 6.82121e-13 5.11591e-13 
T 1 100 float
273.024 273 273 273 273 273 273 273 273 273 273.024
273 273 273 273 273 273 273 273 273 273.024
273 273 273 273 273 273 273 273 273 273.024
273.024 273 273 273 273 273 273 273 273 273
273 273 273 273 273 273 273 273 273 273.024
273.024 273 273 273 273 273 273 273 273 273
273 273 273 273 273 273 273 273 273 273.024
273 273 273 273 273 273 273 273 273 273.024
273 273 273 273 273 273 273 273 273 273.024
273 273 273 273 273 273 273 273 273 
gradTz 1 100 float
-299.988 -0.0119993 -2.41178e-07 -1.27898e-13 0 1.27898e-13 4.26326e-13 -1.7053e-13 -2.55795e-13 7.24754e-13 -299.988
-0.0119993 -2.4118e-07 -1.7053e-13 0 1.27898e-13 4.26326e-14 -1.7053e-13 8.52651e-14 3.83693e-13 -299.988
-0.0119993 -2.41183e-07 -1.91847e-12 -4.68958e-13 4.26326e-14 1.27898e-13 -4.26326e-14 2.55795e-13 6.39488e-13 -299.988
-299.988 -0.0119993 -0.0119993 -2.41178e-07 -2.41178e-07 -1.7053e-13 -1.27898e-13 0 0 1.27898e-13
1.27898e-13 4.26326e-13 4.26326e-13 -8.52651e-14 -1.7053e-13 -3.41061e-13 -2.55795e-13 7.24754e-13 7.24754e-13 -299.988
-299.988 -0.0119993 -0.0119993 -2.41184e-07 -2.41183e-07 -1.87583e-12 -1.91847e-12 -4.26326e-14 -4.68958e-13 4.26326e-14
4.26326e-14 1.27898e-13 1.27898e-13 5.54223e-13 -4.26326e-14 2.98428e-13 2.55795e-13 0 6.39488e-13 -299.988
-0.0119993 -2.41178e-07 -1.7053e-13 0 1.27898e-13 4.26326e-13 -8.52651e-14 -3.41061e-13 7.24754e-13 -299.988
-0.0119993 -2.4118e-07 -1.7053e-13 0 1.27898e-13 4.26326e-14 -1.7053e-13 8.52651e-14 3.83693e-13 -299.988
-0.0119993 -2.41184e-07 -1.87583e-12 -4.26326e-14 4.26326e-14 1.27898e-13 5.54223e-13 2.98428e-13 0 
POINT_DATA  110
FIELD attributes 4
gradTy 1 110 float
-1.65511e-13 -8.27553e-14 0 0 0 0 0 0 0 0 0
0 0 0 0 0 0 0 0 0 0
0 0 0 0 0 0 0 0 0 0
0 0 2.06888e-14 4.13776e-14 0 2.27577e-13 2.27577e-13 0 0 0
-2.89643e-13 -2.89643e-13 0 -1.65511e-13 -8.27553e-14 -1.70531e-13 -3.41061e-13 0 0 0
0 0 0 0 0 0 0 0 0 0
0 0 0 0 0 1.24133e-13 1.7053e-13 8.5265e-14 6.20663e-14 0
0 4.26326e-13 1.86199e-13 4.26326e-13 1.86199e-13 0 0 0 0 0
0 -6.18173e-13 -3.10333e-13 -6.18173e-13 -3.10333e-13 0 0 0 0 0
0 0 0 0 0 0 0 0 0 0
0 0 0 0 0 0 0 0 0 
gradTx 1 110 float
-2.89658e-12 4.82762e-13 7.97228e-12 4.00745e-12 2.06271e-12 7.37543e-12 2.63325e-13 1.87583e-12 2.63325e-13 5.1159e-13 2.63325e-13
1.7053e-13 2.63325e-13 4.26328e-14 -4.38875e-14 -4.68958e-13 -4.38875e-14 -3.83693e-13 2.19438e-13 3.4106e-13 1.7555e-13
6.8212e-13 1.44951e-11 1.64562e-11 8.61178e-12 2.85638e-12 1.7053e-13 -4.68958e-13 -6.8212e-13 -8.10018e-13 -6.8212e-13
-4.26325e-14 7.67386e-13 7.19755e-12 9.91858e-12 3.33545e-12 1.27274e-12 -8.77747e-14 -3.94988e-13 -4.82763e-13 -3.94987e-13
-3.511e-13 -1.7555e-13 2.63325e-13 -3.1599e-12 3.511e-13 0 0 2.06271e-12 0 2.63325e-13
0 2.63325e-13 0 2.63325e-13 0 2.63325e-13 0 -4.38875e-14 0 -4.38875e-14
0 2.19438e-13 0 1.7555e-13 0 9.83082e-12 0 0 7.15367e-12 0
3.33545e-12 0 9.65527e-13 0 -3.94988e-13 0 -3.94988e-13 0 -4.82763e-13 0
-3.94987e-13 0 1.31663e-13 0 3.07213e-13 0 2.63325e-13 3.32535e-12 7.63124e-12 7.37543e-12
1.53477e-12 1.7053e-13 1.7053e-13 4.26328e-14 -4.68958e-13 8.52647e-14 8.10018e-13 6.8212e-13 1.59446e-11 1.42393e-11
8.61178e-12 2.21689e-12 -4.68958e-13 -4.68958e-13 -6.8212e-13 -8.10018e-13 2.55795e-13 8.95283e-13 7.67386e-13 
T 1 110 float
273.024 273.012 273.012 273.024 273 273 273 273 273 273 273
273 273 273 273 273 273 273 273 273 273
273 273.012 273.024 273 273 273 273 273 273 273
273 273 273.012 273.024 273 273 273 273 273 273
273 273 273 273.024 273.012 273.012 273.024 273 273 273
273 273 273 273 273 273 273 273 273 273
273 273 273 273 273 273.024 273.024 273.012 273.012 273
273 273 273 273 273 273 273 273 273 273
273 273 273 273 273 273 273 273.024 273.012 273
273 273 273 273 273 273 273 273 273.024 273.012
273 273 273 273 273 273 273 273 273 
gradTz 1 110 float
-299.988 -150 -150 -299.988 -0.00599977 -0.00599977 -1.20589e-07 -1.2059e-07 -6.3949e-14 -7.4607e-14 6.3949e-14
6.3949e-14 2.77112e-13 1.81189e-13 1.27898e-13 3.19747e-14 -2.13162e-13 -1.27897e-13 2.3448e-13 2.34479e-13 7.24754e-13
5.54223e-13 -150 -299.988 -0.00599977 -1.20591e-07 -6.39489e-13 -7.46069e-14 8.52653e-14 -1.0658e-14 3.19744e-14
3.4106e-13 5.1159e-13 -150 -299.988 -0.00599977 -1.20592e-07 -1.19371e-12 -2.13163e-13 8.52653e-14 4.26327e-14
1.06581e-13 4.47641e-13 6.39488e-13 -299.988 -150 -150 -299.988 -0.00599977 -0.00599977 -1.20589e-07
-1.20589e-07 -8.5265e-14 -7.4607e-14 6.3949e-14 6.3949e-14 2.77112e-13 2.77112e-13 1.7053e-13 1.49214e-13 -2.13163e-13
-2.13163e-13 1.91846e-13 2.13163e-13 7.24754e-13 7.24754e-13 -299.988 -299.988 -150 -150 -0.00599977
-0.00599977 -1.20593e-07 -1.20593e-07 -1.07647e-12 -9.59231e-13 -1.06581e-13 1.41995e-29 8.52653e-14 8.52653e-14 1.91847e-13
3.41061e-13 2.66453e-13 4.26326e-13 2.98428e-13 1.49214e-13 3.19744e-13 0 -299.988 -150 -0.00599977
-1.2059e-07 -8.5265e-14 6.3949e-14 1.81189e-13 5.32909e-14 -1.27898e-13 2.13163e-13 5.54223e-13 -299.988 -150
-0.00599977 -1.20592e-07 -5.22248e-13 3.19745e-14 8.52653e-14 1.38556e-13 1.91847e-13 1.91847e-13 1.91846e-13 
