/*--------------------------------*- C++ -*----------------------------------*\
| =========                 |                                                 |
| \\      /  F ield         | OpenFOAM: The Open Source CFD Toolbox           |
|  \\    /   O peration     | Version:  4.0                                   |
|   \\  /    A nd           | Web:      www.OpenFOAM.org                      |
|    \\/     M anipulation  |                                                 |
\*---------------------------------------------------------------------------*/
FoamFile
{
    version     2.0;
    format      ascii;
    class       volScalarField;
    location    "0.8";
    object      gradTz;
}
// * * * * * * * * * * * * * * * * * * * * * * * * * * * * * * * * * * * * * //

dimensions      [0 -1 0 1 0 0 0];

internalField   nonuniform List<scalar> 
40
(
-299.99
-299.99
-299.99
-299.99
-0.00959954
-0.00959954
-0.00959954
-0.00959954
-1.54551e-07
-1.54551e-07
-1.54551e-07
-1.54551e-07
-1.93268e-12
-1.93268e-12
-1.93268e-12
-1.93268e-12
0
0
0
0
0
0
0
0
0
0
0
0
0
0
0
0
4.54747e-12
4.54747e-12
4.54747e-12
4.54747e-12
-4.54747e-12
-4.54747e-12
-4.54747e-12
-4.54747e-12
)
;

boundaryField
{
    walls
    {
        type            calculated;
        value           nonuniform List<scalar> 
80
(
-299.99
-0.00959954
-1.54551e-07
-1.93268e-12
0
0
0
0
4.54747e-12
-4.54747e-12
-299.99
-0.00959954
-1.54551e-07
-1.93268e-12
0
0
0
0
4.54747e-12
-4.54747e-12
-299.99
-299.99
-0.00959954
-0.00959954
-1.54551e-07
-1.54551e-07
-1.93268e-12
-1.93268e-12
0
0
0
0
0
0
0
0
4.54747e-12
4.54747e-12
-4.54747e-12
-4.54747e-12
-299.99
-299.99
-0.00959954
-0.00959954
-1.54551e-07
-1.54551e-07
-1.93268e-12
-1.93268e-12
0
0
0
0
0
0
0
0
4.54747e-12
4.54747e-12
-4.54747e-12
-4.54747e-12
-299.99
-0.00959954
-1.54551e-07
-1.93268e-12
0
0
0
0
4.54747e-12
-4.54747e-12
-299.99
-0.00959954
-1.54551e-07
-1.93268e-12
0
0
0
0
4.54747e-12
-4.54747e-12
)
;
    }
    inlet
    {
        type            calculated;
        value           uniform -599.962;
    }
    outlet
    {
        type            calculated;
        value           uniform -1.81899e-11;
    }
}


// ************************************************************************* //
