# vtk DataFile Version 2.0
walls
ASCII
DATASET POLYDATA
POINTS 88 float
0 1 0 0 1 1 0.5 1 1 0.5 1
0 0 1 2 0.5 1 2 0 1 3
0.5 1 3 0 1 4 0.5 1 4 0
1 5 0.5 1 5 0 1 6 0.5 1
6 0 1 7 0.5 1 7 0 1 8
0.5 1 8 0 1 9 0.5 1 9 0
1 10 0.5 1 10 1 1 1 1 1
0 1 1 2 1 1 3 1 1 4
1 1 5 1 1 6 1 1 7 1
1 8 1 1 9 1 1 10 0 0
0 0 0 1 0 0.5 1 0 0.5 0
0 0 2 0 0.5 2 0 0 3 0
0.5 3 0 0 4 0 0.5 4 0 0
5 0 0.5 5 0 0 6 0 0.5 6
0 0 7 0 0.5 7 0 0 8 0
0.5 8 0 0 9 0 0.5 9 0 0
10 0 0.5 10 1 0 0 1 0.5 0
1 0.5 1 1 0 1 1 0.5 2 1
0 2 1 0.5 3 1 0 3 1 0.5
4 1 0 4 1 0.5 5 1 0 5
1 0.5 6 1 0 6 1 0.5 7 1
0 7 1 0.5 8 1 0 8 1 0.5
9 1 0 9 1 0.5 10 1 0 10
0.5 0 0 0.5 0 1 0.5 0 2 0.5
0 3 0.5 0 4 0.5 0 5 0.5 0
6 0.5 0 7 0.5 0 8 0.5 0 9
0.5 0 10 
POLYGONS 80 400
4 0 1 2 3 4 1 4 5 2 4
4 6 7 5 4 6 8 9 7 4
8 10 11 9 4 10 12 13 11 4
12 14 15 13 4 14 16 17 15 4
16 18 19 17 4 18 20 21 19 4
3 2 22 23 4 2 5 24 22 4
5 7 25 24 4 7 9 26 25 4
9 11 27 26 4 11 13 28 27 4
13 15 29 28 4 15 17 30 29 4
17 19 31 30 4 19 21 32 31 4
33 34 35 36 4 36 35 1 0 4
34 37 38 35 4 35 38 4 1 4
37 39 40 38 4 38 40 6 4 4
39 41 42 40 4 40 42 8 6 4
41 43 44 42 4 42 44 10 8 4
43 45 46 44 4 44 46 12 10 4
45 47 48 46 4 46 48 14 12 4
47 49 50 48 4 48 50 16 14 4
49 51 52 50 4 50 52 18 16 4
51 53 54 52 4 52 54 20 18 4
55 56 57 58 4 56 23 22 57 4
58 57 59 60 4 57 22 24 59 4
60 59 61 62 4 59 24 25 61 4
62 61 63 64 4 61 25 26 63 4
64 63 65 66 4 63 26 27 65 4
66 65 67 68 4 65 27 28 67 4
68 67 69 70 4 67 28 29 69 4
70 69 71 72 4 69 29 30 71 4
72 71 73 74 4 71 30 31 73 4
74 73 75 76 4 73 31 32 75 4
33 77 78 34 4 34 78 79 37 4
37 79 80 39 4 39 80 81 41 4
41 81 82 43 4 43 82 83 45 4
45 83 84 47 4 47 84 85 49 4
49 85 86 51 4 51 86 87 53 4
77 55 58 78 4 78 58 60 79 4
79 60 62 80 4 80 62 64 81 4
81 64 66 82 4 82 66 68 83 4
83 68 70 84 4 84 70 72 85 4
85 72 74 86 4 86 74 76 87 
CELL_DATA 80
FIELD attributes 5
patchID 1 80 float
0 0 0 0 0 0 0 0 0 0 0
0 0 0 0 0 0 0 0 0 0
0 0 0 0 0 0 0 0 0 0
0 0 0 0 0 0 0 0 0 0
0 0 0 0 0 0 0 0 0 0
0 0 0 0 0 0 0 0 0 0
0 0 0 0 0 0 0 0 0 0
0 0 0 0 0 0 0 0 0 
gradTy 1 80 float
0 0 0 0 0 0 0 0 0 0 0
0 0 0 0 0 0 0 0 0 0
0 0 0 0 0 0 0 0 0 0
0 0 0 0 0 0 0 0 0 0
0 0 0 0 0 0 0 0 0 0
0 0 0 0 0 0 0 0 0 0
0 0 0 0 0 0 0 0 0 0
0 0 0 0 0 0 0 0 0 
gradTx 1 80 float
0 0 0 0 0 0 0 0 0 0 0
0 0 0 0 0 0 0 0 0 0
0 0 0 0 0 0 0 0 0 0
0 0 0 0 0 0 0 0 0 0
0 0 0 0 0 0 0 0 0 0
0 0 0 0 0 0 0 0 0 0
0 0 0 0 0 0 0 0 0 0
0 0 0 0 0 0 0 0 0 
T 1 80 float
273.067 273 273 273 273 273 273 273 273 273 273.067
273 273 273 273 273 273 273 273 273 273.067
273.067 273 273 273 273 273 273 273 273 273
273 273 273 273 273 273 273 273 273 273.067
273.067 273 273 273 273 273 273 273 273 273
273 273 273 273 273 273 273 273 273 273.067
273 273 273 273 273 273 273 273 273 273.067
273 273 273 273 273 273 273 273 273 
gradTz 1 80 float
-299.966 -0.0335943 -1.8846e-06 -7.35554e-11 0 0 0 0 1.59162e-11 -1.59162e-11 -299.966
-0.0335943 -1.8846e-06 -7.35554e-11 0 0 0 0 1.59162e-11 -1.59162e-11 -299.966
-299.966 -0.0335943 -0.0335943 -1.8846e-06 -1.8846e-06 -7.35554e-11 -7.35554e-11 0 0 0
0 0 0 0 0 1.59162e-11 1.59162e-11 -1.59162e-11 -1.59162e-11 -299.966
-299.966 -0.0335943 -0.0335943 -1.8846e-06 -1.8846e-06 -7.35554e-11 -7.35554e-11 0 0 0
0 0 0 0 0 1.59162e-11 1.59162e-11 -1.59162e-11 -1.59162e-11 -299.966
-0.0335943 -1.8846e-06 -7.35554e-11 0 0 0 0 1.59162e-11 -1.59162e-11 -299.966
-0.0335943 -1.8846e-06 -7.35554e-11 0 0 0 0 1.59162e-11 -1.59162e-11 
POINT_DATA  88
FIELD attributes 4
gradTy 1 88 float
0 0 0 0 0 0 0 0 0 0 0
0 0 0 0 0 0 0 0 0 0
0 0 0 0 0 0 0 0 0 0
0 0 0 0 0 0 0 0 0 0
0 0 0 0 0 0 0 0 0 0
0 0 0 0 0 0 0 0 0 0
0 0 0 0 0 0 0 0 0 0
0 0 0 0 0 0 0 0 0 0
0 0 0 0 0 0 0 
gradTx 1 88 float
0 0 0 0 0 0 0 0 0 0 0
0 0 0 0 0 0 0 0 0 0
0 0 0 0 0 0 0 0 0 0
0 0 0 0 0 0 0 0 0 0
0 0 0 0 0 0 0 0 0 0
0 0 0 0 0 0 0 0 0 0
0 0 0 0 0 0 0 0 0 0
0 0 0 0 0 0 0 0 0 0
0 0 0 0 0 0 0 
T 1 88 float
273.067 273.034 273.034 273.067 273 273 273 273 273 273 273
273 273 273 273 273 273 273 273 273 273
273 273.034 273.067 273 273 273 273 273 273 273
273 273 273.067 273.034 273.034 273.067 273 273 273 273
273 273 273 273 273 273 273 273 273 273
273 273 273 273 273.067 273.067 273.034 273.034 273 273
273 273 273 273 273 273 273 273 273 273
273 273 273 273 273 273 273.067 273.034 273 273
273 273 273 273 273 273 273 
gradTz 1 88 float
-299.966 -150 -150 -299.966 -0.0167981 -0.0167981 -9.42337e-07 -9.42337e-07 -3.67777e-11 -3.67777e-11 0
0 0 0 0 0 7.9581e-12 7.9581e-12 0 0 -1.59162e-11
-1.59162e-11 -150 -299.966 -0.0167981 -9.42337e-07 -3.67777e-11 0 0 0 7.9581e-12
0 -1.59162e-11 -299.966 -150 -150 -299.966 -0.0167981 -0.0167981 -9.42337e-07 -9.42337e-07
-3.67777e-11 -3.67777e-11 0 0 0 0 0 0 7.9581e-12 7.9581e-12
0 0 -1.59162e-11 -1.59162e-11 -299.966 -299.966 -150 -150 -0.0167981 -0.0167981
-9.42337e-07 -9.42337e-07 -3.67777e-11 -3.67777e-11 0 0 0 0 0 0
7.9581e-12 7.9581e-12 0 0 -1.59162e-11 -1.59162e-11 -299.966 -150 -0.0167981 -9.42337e-07
-3.67777e-11 0 0 0 7.9581e-12 0 -1.59162e-11 
