/*--------------------------------*- C++ -*----------------------------------*\
| =========                 |                                                 |
| \\      /  F ield         | OpenFOAM: The Open Source CFD Toolbox           |
|  \\    /   O peration     | Version:  4.0                                   |
|   \\  /    A nd           | Web:      www.OpenFOAM.org                      |
|    \\/     M anipulation  |                                                 |
\*---------------------------------------------------------------------------*/
FoamFile
{
    version     2.0;
    format      ascii;
    class       volScalarField;
    location    "1.1";
    object      gradTy;
}
// * * * * * * * * * * * * * * * * * * * * * * * * * * * * * * * * * * * * * //

dimensions      [0 -1 0 1 0 0 0];

internalField   nonuniform List<scalar> 
60
(
-4.26326e-13
0
1.7053e-13
-5.96856e-13
0
8.52651e-14
0
0
0
0
0
0
0
0
0
0
0
0
0
0
7.67386e-13
0
0
9.37916e-13
0
0
0
0
0
0
0
0
0
0
0
0
0
0
0
0
0
0
0
0
0
0
0
0
0
0
-1.27898e-12
0
0
-1.19371e-12
0
0
0
0
0
0
)
;

boundaryField
{
    walls
    {
        type            calculated;
        value           nonuniform List<scalar> 
100
(
0
0
0
0
0
0
0
0
0
0
0
0
0
0
0
0
0
0
0
0
0
0
0
0
0
0
0
0
0
0
-4.26326e-13
-5.96856e-13
0
0
0
0
0
0
0
0
0
0
0
0
0
0
0
0
0
0
1.7053e-13
8.52651e-14
0
0
0
0
7.67386e-13
9.37916e-13
0
0
0
0
0
0
0
0
-1.27898e-12
-1.19371e-12
0
0
0
0
0
0
0
0
0
0
0
0
0
0
0
0
0
0
0
0
0
0
0
0
0
0
0
0
0
0
0
0
)
;
    }
    inlet
    {
        type            calculated;
        value           nonuniform List<scalar> 6(-4.26326e-13 -5.96856e-13 0 0 1.7053e-13 8.52651e-14);
    }
    outlet
    {
        type            calculated;
        value           uniform 0;
    }
}


// ************************************************************************* //
