/*--------------------------------*- C++ -*----------------------------------*\
| =========                 |                                                 |
| \\      /  F ield         | OpenFOAM: The Open Source CFD Toolbox           |
|  \\    /   O peration     | Version:  4.0                                   |
|   \\  /    A nd           | Web:      www.OpenFOAM.org                      |
|    \\/     M anipulation  |                                                 |
\*---------------------------------------------------------------------------*/
FoamFile
{
    version     2.0;
    format      ascii;
    class       volScalarField;
    location    "2.8";
    object      gradTz;
}
// * * * * * * * * * * * * * * * * * * * * * * * * * * * * * * * * * * * * * //

dimensions      [0 -1 0 1 0 0 0];

internalField   nonuniform List<scalar> 
40
(
-299.966
-299.966
-299.966
-299.966
-0.0335943
-0.0335943
-0.0335943
-0.0335943
-1.8846e-06
-1.8846e-06
-1.8846e-06
-1.8846e-06
-7.35554e-11
-7.35554e-11
-7.35554e-11
-7.35554e-11
0
0
0
0
0
0
0
0
0
0
0
0
0
0
0
0
1.59162e-11
1.59162e-11
1.59162e-11
1.59162e-11
-1.59162e-11
-1.59162e-11
-1.59162e-11
-1.59162e-11
)
;

boundaryField
{
    walls
    {
        type            calculated;
        value           nonuniform List<scalar> 
80
(
-299.966
-0.0335943
-1.8846e-06
-7.35554e-11
0
0
0
0
1.59162e-11
-1.59162e-11
-299.966
-0.0335943
-1.8846e-06
-7.35554e-11
0
0
0
0
1.59162e-11
-1.59162e-11
-299.966
-299.966
-0.0335943
-0.0335943
-1.8846e-06
-1.8846e-06
-7.35554e-11
-7.35554e-11
0
0
0
0
0
0
0
0
1.59162e-11
1.59162e-11
-1.59162e-11
-1.59162e-11
-299.966
-299.966
-0.0335943
-0.0335943
-1.8846e-06
-1.8846e-06
-7.35554e-11
-7.35554e-11
0
0
0
0
0
0
0
0
1.59162e-11
1.59162e-11
-1.59162e-11
-1.59162e-11
-299.966
-0.0335943
-1.8846e-06
-7.35554e-11
0
0
0
0
1.59162e-11
-1.59162e-11
-299.966
-0.0335943
-1.8846e-06
-7.35554e-11
0
0
0
0
1.59162e-11
-1.59162e-11
)
;
    }
    inlet
    {
        type            calculated;
        value           uniform -599.866;
    }
    outlet
    {
        type            calculated;
        value           uniform -6.36646e-11;
    }
}


// ************************************************************************* //
