/*--------------------------------*- C++ -*----------------------------------*\
| =========                 |                                                 |
| \\      /  F ield         | OpenFOAM: The Open Source CFD Toolbox           |
|  \\    /   O peration     | Version:  4.0                                   |
|   \\  /    A nd           | Web:      www.OpenFOAM.org                      |
|    \\/     M anipulation  |                                                 |
\*---------------------------------------------------------------------------*/
FoamFile
{
    version     2.0;
    format      ascii;
    class       volScalarField;
    location    "0.2";
    object      gradTz;
}
// * * * * * * * * * * * * * * * * * * * * * * * * * * * * * * * * * * * * * //

dimensions      [0 -1 0 1 0 0 0];

internalField   nonuniform List<scalar> 
60
(
-299.998
-299.998
-299.998
-299.998
-299.998
-299.998
-0.00239997
-0.00239997
-0.00239997
-0.00239997
-0.00239997
-0.00239997
-9.8393e-09
-9.83943e-09
-9.84028e-09
-9.8393e-09
-9.83943e-09
-9.83981e-09
0
-8.52651e-14
-5.11591e-13
0
-8.52651e-14
-5.54223e-13
0
0
-4.26326e-14
0
0
-4.68958e-13
1.27898e-13
1.27898e-13
4.26326e-14
1.27898e-13
1.27898e-13
4.26326e-14
4.26326e-13
4.26326e-14
1.27898e-13
4.26326e-13
4.26326e-14
1.27898e-13
-8.52651e-14
-1.7053e-13
5.54223e-13
-1.7053e-13
-1.7053e-13
-4.26326e-14
-3.41061e-13
8.52651e-14
2.98428e-13
-2.55795e-13
8.52651e-14
2.55795e-13
7.24754e-13
3.83693e-13
0
7.24754e-13
3.83693e-13
6.39488e-13
)
;

boundaryField
{
    walls
    {
        type            calculated;
        value           nonuniform List<scalar> 
100
(
-299.998
-0.00239997
-9.8393e-09
0
0
1.27898e-13
4.26326e-13
-1.7053e-13
-2.55795e-13
7.24754e-13
-299.998
-0.00239997
-9.83943e-09
-8.52651e-14
0
1.27898e-13
4.26326e-14
-1.7053e-13
8.52651e-14
3.83693e-13
-299.998
-0.00239997
-9.83981e-09
-5.54223e-13
-4.68958e-13
4.26326e-14
1.27898e-13
-4.26326e-14
2.55795e-13
6.39488e-13
-299.998
-299.998
-0.00239997
-0.00239997
-9.8393e-09
-9.8393e-09
0
0
0
0
1.27898e-13
1.27898e-13
4.26326e-13
4.26326e-13
-8.52651e-14
-1.7053e-13
-3.41061e-13
-2.55795e-13
7.24754e-13
7.24754e-13
-299.998
-299.998
-0.00239997
-0.00239997
-9.84028e-09
-9.83981e-09
-5.11591e-13
-5.54223e-13
-4.26326e-14
-4.68958e-13
4.26326e-14
4.26326e-14
1.27898e-13
1.27898e-13
5.54223e-13
-4.26326e-14
2.98428e-13
2.55795e-13
0
6.39488e-13
-299.998
-0.00239997
-9.8393e-09
0
0
1.27898e-13
4.26326e-13
-8.52651e-14
-3.41061e-13
7.24754e-13
-299.998
-0.00239997
-9.83943e-09
-8.52651e-14
0
1.27898e-13
4.26326e-14
-1.7053e-13
8.52651e-14
3.83693e-13
-299.998
-0.00239997
-9.84028e-09
-5.11591e-13
-4.26326e-14
4.26326e-14
1.27898e-13
5.54223e-13
2.98428e-13
0
)
;
    }
    inlet
    {
        type            calculated;
        value           nonuniform List<scalar> 6(-599.99 -599.99 -599.99 -599.99 -599.99 -599.99);
    }
    outlet
    {
        type            calculated;
        value           nonuniform List<scalar> 6(1.25056e-12 1.25056e-12 6.82121e-13 6.82121e-13 0 0);
    }
}


// ************************************************************************* //
