/*--------------------------------*- C++ -*----------------------------------*\
| =========                 |                                                 |
| \\      /  F ield         | OpenFOAM: The Open Source CFD Toolbox           |
|  \\    /   O peration     | Version:  4.0                                   |
|   \\  /    A nd           | Web:      www.OpenFOAM.org                      |
|    \\/     M anipulation  |                                                 |
\*---------------------------------------------------------------------------*/
FoamFile
{
    version     2.0;
    format      ascii;
    class       volScalarField;
    location    "2.6";
    object      gradTz;
}
// * * * * * * * * * * * * * * * * * * * * * * * * * * * * * * * * * * * * * //

dimensions      [0 -1 0 1 0 0 0];

internalField   nonuniform List<scalar> 
40
(
-299.969
-299.969
-299.969
-299.969
-0.0311951
-0.0311951
-0.0311951
-0.0311951
-1.62523e-06
-1.62523e-06
-1.62523e-06
-1.62523e-06
-5.93445e-11
-5.93445e-11
-5.93445e-11
-5.93445e-11
0
0
0
0
0
0
0
0
0
0
0
0
0
0
0
0
1.47793e-11
1.47793e-11
1.47793e-11
1.47793e-11
-1.47793e-11
-1.47793e-11
-1.47793e-11
-1.47793e-11
)
;

boundaryField
{
    walls
    {
        type            calculated;
        value           nonuniform List<scalar> 
80
(
-299.969
-0.0311951
-1.62523e-06
-5.93445e-11
0
0
0
0
1.47793e-11
-1.47793e-11
-299.969
-0.0311951
-1.62523e-06
-5.93445e-11
0
0
0
0
1.47793e-11
-1.47793e-11
-299.969
-299.969
-0.0311951
-0.0311951
-1.62523e-06
-1.62523e-06
-5.93445e-11
-5.93445e-11
0
0
0
0
0
0
0
0
1.47793e-11
1.47793e-11
-1.47793e-11
-1.47793e-11
-299.969
-299.969
-0.0311951
-0.0311951
-1.62523e-06
-1.62523e-06
-5.93445e-11
-5.93445e-11
0
0
0
0
0
0
0
0
1.47793e-11
1.47793e-11
-1.47793e-11
-1.47793e-11
-299.969
-0.0311951
-1.62523e-06
-5.93445e-11
0
0
0
0
1.47793e-11
-1.47793e-11
-299.969
-0.0311951
-1.62523e-06
-5.93445e-11
0
0
0
0
1.47793e-11
-1.47793e-11
)
;
    }
    inlet
    {
        type            calculated;
        value           uniform -599.875;
    }
    outlet
    {
        type            calculated;
        value           uniform -5.91172e-11;
    }
}


// ************************************************************************* //
