/*--------------------------------*- C++ -*----------------------------------*\
| =========                 |                                                 |
| \\      /  F ield         | OpenFOAM: The Open Source CFD Toolbox           |
|  \\    /   O peration     | Version:  4.0                                   |
|   \\  /    A nd           | Web:      www.OpenFOAM.org                      |
|    \\/     M anipulation  |                                                 |
\*---------------------------------------------------------------------------*/
FoamFile
{
    version     2.0;
    format      ascii;
    class       volScalarField;
    location    "1.6";
    object      gradTz;
}
// * * * * * * * * * * * * * * * * * * * * * * * * * * * * * * * * * * * * * //

dimensions      [0 -1 0 1 0 0 0];

internalField   nonuniform List<scalar> 
40
(
-299.981
-299.981
-299.981
-299.981
-0.0191982
-0.0191982
-0.0191982
-0.0191982
-6.16252e-07
-6.16252e-07
-6.16252e-07
-6.16252e-07
-1.50067e-11
-1.50067e-11
-1.50067e-11
-1.50067e-11
0
0
0
0
0
0
0
0
0
0
0
0
0
0
0
0
9.09495e-12
9.09495e-12
9.09495e-12
9.09495e-12
-9.09495e-12
-9.09495e-12
-9.09495e-12
-9.09495e-12
)
;

boundaryField
{
    walls
    {
        type            calculated;
        value           nonuniform List<scalar> 
80
(
-299.981
-0.0191982
-6.16252e-07
-1.50067e-11
0
0
0
0
9.09495e-12
-9.09495e-12
-299.981
-0.0191982
-6.16252e-07
-1.50067e-11
0
0
0
0
9.09495e-12
-9.09495e-12
-299.981
-299.981
-0.0191982
-0.0191982
-6.16252e-07
-6.16252e-07
-1.50067e-11
-1.50067e-11
0
0
0
0
0
0
0
0
9.09495e-12
9.09495e-12
-9.09495e-12
-9.09495e-12
-299.981
-299.981
-0.0191982
-0.0191982
-6.16252e-07
-6.16252e-07
-1.50067e-11
-1.50067e-11
0
0
0
0
0
0
0
0
9.09495e-12
9.09495e-12
-9.09495e-12
-9.09495e-12
-299.981
-0.0191982
-6.16252e-07
-1.50067e-11
0
0
0
0
9.09495e-12
-9.09495e-12
-299.981
-0.0191982
-6.16252e-07
-1.50067e-11
0
0
0
0
9.09495e-12
-9.09495e-12
)
;
    }
    inlet
    {
        type            calculated;
        value           uniform -599.923;
    }
    outlet
    {
        type            calculated;
        value           uniform -3.63798e-11;
    }
}


// ************************************************************************* //
