/*--------------------------------*- C++ -*----------------------------------*\
| =========                 |                                                 |
| \\      /  F ield         | OpenFOAM: The Open Source CFD Toolbox           |
|  \\    /   O peration     | Version:  4.0                                   |
|   \\  /    A nd           | Web:      www.OpenFOAM.org                      |
|    \\/     M anipulation  |                                                 |
\*---------------------------------------------------------------------------*/
FoamFile
{
    version     2.0;
    format      ascii;
    class       volScalarField;
    location    "2.9";
    object      gradTz;
}
// * * * * * * * * * * * * * * * * * * * * * * * * * * * * * * * * * * * * * //

dimensions      [0 -1 0 1 0 0 0];

internalField   nonuniform List<scalar> 
40
(
-299.965
-299.965
-299.965
-299.965
-0.0347939
-0.0347939
-0.0347939
-0.0347939
-2.02148e-06
-2.02148e-06
-2.02148e-06
-2.02148e-06
-8.15135e-11
-8.15135e-11
-8.15135e-11
-8.15135e-11
0
0
0
0
0
0
0
0
0
0
0
0
0
0
0
0
1.64846e-11
1.64846e-11
1.64846e-11
1.64846e-11
-1.64846e-11
-1.64846e-11
-1.64846e-11
-1.64846e-11
)
;

boundaryField
{
    walls
    {
        type            calculated;
        value           nonuniform List<scalar> 
80
(
-299.965
-0.0347939
-2.02148e-06
-8.15135e-11
0
0
0
0
1.64846e-11
-1.64846e-11
-299.965
-0.0347939
-2.02148e-06
-8.15135e-11
0
0
0
0
1.64846e-11
-1.64846e-11
-299.965
-299.965
-0.0347939
-0.0347939
-2.02148e-06
-2.02148e-06
-8.15135e-11
-8.15135e-11
0
0
0
0
0
0
0
0
1.64846e-11
1.64846e-11
-1.64846e-11
-1.64846e-11
-299.965
-299.965
-0.0347939
-0.0347939
-2.02148e-06
-2.02148e-06
-8.15135e-11
-8.15135e-11
0
0
0
0
0
0
0
0
1.64846e-11
1.64846e-11
-1.64846e-11
-1.64846e-11
-299.965
-0.0347939
-2.02148e-06
-8.15135e-11
0
0
0
0
1.64846e-11
-1.64846e-11
-299.965
-0.0347939
-2.02148e-06
-8.15135e-11
0
0
0
0
1.64846e-11
-1.64846e-11
)
;
    }
    inlet
    {
        type            calculated;
        value           uniform -599.861;
    }
    outlet
    {
        type            calculated;
        value           uniform -6.59384e-11;
    }
}


// ************************************************************************* //
