/*--------------------------------*- C++ -*----------------------------------*\
| =========                 |                                                 |
| \\      /  F ield         | OpenFOAM: The Open Source CFD Toolbox           |
|  \\    /   O peration     | Version:  4.0                                   |
|   \\  /    A nd           | Web:      www.OpenFOAM.org                      |
|    \\/     M anipulation  |                                                 |
\*---------------------------------------------------------------------------*/
FoamFile
{
    version     2.0;
    format      ascii;
    class       volScalarField;
    location    "1.8";
    object      gradTz;
}
// * * * * * * * * * * * * * * * * * * * * * * * * * * * * * * * * * * * * * //

dimensions      [0 -1 0 1 0 0 0];

internalField   nonuniform List<scalar> 
40
(
-299.978
-299.978
-299.978
-299.978
-0.0215977
-0.0215977
-0.0215977
-0.0215977
-7.79663e-07
-7.79663e-07
-7.79663e-07
-7.79663e-07
-2.09184e-11
-2.09184e-11
-2.09184e-11
-2.09184e-11
0
0
0
0
0
0
0
0
0
0
0
0
0
0
0
0
1.02318e-11
1.02318e-11
1.02318e-11
1.02318e-11
-1.02318e-11
-1.02318e-11
-1.02318e-11
-1.02318e-11
)
;

boundaryField
{
    walls
    {
        type            calculated;
        value           nonuniform List<scalar> 
80
(
-299.978
-0.0215977
-7.79663e-07
-2.09184e-11
0
0
0
0
1.02318e-11
-1.02318e-11
-299.978
-0.0215977
-7.79663e-07
-2.09184e-11
0
0
0
0
1.02318e-11
-1.02318e-11
-299.978
-299.978
-0.0215977
-0.0215977
-7.79663e-07
-7.79663e-07
-2.09184e-11
-2.09184e-11
0
0
0
0
0
0
0
0
1.02318e-11
1.02318e-11
-1.02318e-11
-1.02318e-11
-299.978
-299.978
-0.0215977
-0.0215977
-7.79663e-07
-7.79663e-07
-2.09184e-11
-2.09184e-11
0
0
0
0
0
0
0
0
1.02318e-11
1.02318e-11
-1.02318e-11
-1.02318e-11
-299.978
-0.0215977
-7.79663e-07
-2.09184e-11
0
0
0
0
1.02318e-11
-1.02318e-11
-299.978
-0.0215977
-7.79663e-07
-2.09184e-11
0
0
0
0
1.02318e-11
-1.02318e-11
)
;
    }
    inlet
    {
        type            calculated;
        value           uniform -599.914;
    }
    outlet
    {
        type            calculated;
        value           uniform -4.09273e-11;
    }
}


// ************************************************************************* //
