# vtk DataFile Version 2.0
inlet
ASCII
DATASET POLYDATA
POINTS 12 float
0 0 0 0 0.5 0 0.333333 0.5 0 0.333333 0
0 0 1 0 0.333333 1 0 0.666667 0.5 0
0.666667 0 0 0.666667 1 0 1 0.5 0 1
0 0 1 1 0 
POLYGONS 6 30
4 0 1 2 3 4 1 4 5 2 4
3 2 6 7 4 2 5 8 6 4
7 6 9 10 4 6 8 11 9 
CELL_DATA 6
FIELD attributes 5
patchID 1 6 float
1 1 1 1 1 1 
gradTy 1 6 float
-5.11591e-13 -5.96856e-13 0 0 0 0 
gradTx 1 6 float
-1.04023e-11 -9.54969e-12 1.90994e-11 1.9952e-11 2.95017e-11 2.95017e-11 
T 1 6 float
573 573 573 573 573 573 
gradTz 1 6 float
-599.928 -599.928 -599.928 -599.928 -599.928 -599.928 
POINT_DATA  12
FIELD attributes 4
gradTy 1 12 float
-5.11591e-13 -5.54223e-13 -2.77112e-13 -2.55795e-13 -5.96856e-13 -2.98428e-13 0 0 0 0 0
0 
gradTx 1 12 float
-1.04023e-11 -9.97599e-12 4.77485e-12 4.34855e-12 -9.54969e-12 5.20116e-12 2.45137e-11 2.43005e-11 2.47269e-11 2.95017e-11 2.95017e-11
2.95017e-11 
T 1 12 float
573 573 573 573 573 573 573 573 573 573 573
573 
gradTz 1 12 float
-599.928 -599.928 -599.928 -599.928 -599.928 -599.928 -599.928 -599.928 -599.928 -599.928 -599.928
-599.928 
