# vtk DataFile Version 2.0
inlet
ASCII
DATASET POLYDATA
POINTS 12 float
0 0 0 0 0.5 0 0.333333 0.5 0 0.333333 0
0 0 1 0 0.333333 1 0 0.666667 0.5 0
0.666667 0 0 0.666667 1 0 1 0.5 0 1
0 0 1 1 0 
POLYGONS 6 30
4 0 1 2 3 4 1 4 5 2 4
3 2 6 7 4 2 5 8 6 4
7 6 9 10 4 6 8 11 9 
CELL_DATA 6
FIELD attributes 5
patchID 1 6 float
1 1 1 1 1 1 
gradTy 1 6 float
-1.36424e-12 -1.44951e-12 0 0 8.52651e-14 0 
gradTx 1 6 float
-2.06342e-11 -1.85878e-11 3.61524e-11 3.83693e-11 5.67866e-11 5.69571e-11 
T 1 6 float
573 573 573 573 573 573 
gradTz 1 6 float
-599.861 -599.861 -599.861 -599.861 -599.861 -599.861 
POINT_DATA  12
FIELD attributes 4
gradTy 1 12 float
-1.36424e-12 -1.40688e-12 -7.03438e-13 -6.8212e-13 -1.44951e-12 -7.24755e-13 2.13163e-14 4.26326e-14 0 4.26326e-14 8.52651e-14
0 
gradTx 1 12 float
-2.06342e-11 -1.9611e-11 8.82493e-12 7.7591e-12 -1.85878e-11 9.89075e-12 4.70664e-11 4.64695e-11 4.76632e-11 5.68719e-11 5.67866e-11
5.69571e-11 
T 1 12 float
573 573 573 573 573 573 573 573 573 573 573
573 
gradTz 1 12 float
-599.861 -599.861 -599.861 -599.861 -599.861 -599.861 -599.861 -599.861 -599.861 -599.861 -599.861
-599.861 
