# vtk DataFile Version 2.0
inlet
ASCII
DATASET POLYDATA
POINTS 12 float
0 0 0 0 0.5 0 0.333333 0.5 0 0.333333 0
0 0 1 0 0.333333 1 0 0.666667 0.5 0
0.666667 0 0 0.666667 1 0 1 0.5 0 1
0 0 1 1 0 
POLYGONS 6 30
4 0 1 2 3 4 1 4 5 2 4
3 2 6 7 4 2 5 8 6 4
7 6 9 10 4 6 8 11 9 
CELL_DATA 6
FIELD attributes 5
patchID 1 6 float
1 1 1 1 1 1 
gradTy 1 6 float
-4.26326e-13 -5.96856e-13 0 0 1.7053e-13 8.52651e-14 
gradTx 1 6 float
-7.50333e-12 -6.65068e-12 1.3813e-11 1.46656e-11 2.13163e-11 2.14868e-11 
T 1 6 float
573 573 573 573 573 573 
gradTz 1 6 float
-599.947 -599.947 -599.947 -599.947 -599.947 -599.947 
POINT_DATA  12
FIELD attributes 4
gradTy 1 12 float
-4.26326e-13 -5.11591e-13 -2.55795e-13 -2.13163e-13 -5.96856e-13 -2.98428e-13 6.39488e-14 8.5265e-14 4.26326e-14 1.27898e-13 1.7053e-13
8.52651e-14 
gradTx 1 12 float
-7.50333e-12 -7.07701e-12 3.58115e-12 3.15483e-12 -6.65068e-12 4.00746e-12 1.78204e-11 1.75646e-11 1.80762e-11 2.14016e-11 2.13163e-11
2.14868e-11 
T 1 12 float
573 573 573 573 573 573 573 573 573 573 573
573 
gradTz 1 12 float
-599.947 -599.947 -599.947 -599.947 -599.947 -599.947 -599.947 -599.947 -599.947 -599.947 -599.947
-599.947 
