# vtk DataFile Version 2.0
inlet
ASCII
DATASET POLYDATA
POINTS 12 float
0 0 0 0 0.5 0 0.333333 0.5 0 0.333333 0
0 0 1 0 0.333333 1 0 0.666667 0.5 0
0.666667 0 0 0.666667 1 0 1 0.5 0 1
0 0 1 1 0 
POLYGONS 6 30
4 0 1 2 3 4 1 4 5 2 4
3 2 6 7 4 2 5 8 6 4
7 6 9 10 4 6 8 11 9 
CELL_DATA 6
FIELD attributes 5
patchID 1 6 float
1 1 1 1 1 1 
gradTy 1 6 float
-8.52651e-13 -9.37916e-13 0 0 0 0 
gradTx 1 6 float
-1.09139e-11 -9.54969e-12 1.9952e-11 2.13163e-11 3.0866e-11 3.0866e-11 
T 1 6 float
573 573 573 573 573 573 
gradTz 1 6 float
-599.923 -599.923 -599.923 -599.923 -599.923 -599.923 
POINT_DATA  12
FIELD attributes 4
gradTy 1 12 float
-8.52651e-13 -8.95284e-13 -4.47642e-13 -4.26326e-13 -9.37916e-13 -4.68958e-13 0 0 0 0 0
0 
gradTx 1 12 float
-1.09139e-11 -1.02318e-11 5.20118e-12 4.51905e-12 -9.54969e-12 5.88331e-12 2.57501e-11 2.5409e-11 2.60912e-11 3.0866e-11 3.0866e-11
3.0866e-11 
T 1 12 float
573 573 573 573 573 573 573 573 573 573 573
573 
gradTz 1 12 float
-599.923 -599.923 -599.923 -599.923 -599.923 -599.923 -599.923 -599.923 -599.923 -599.923 -599.923
-599.923 
