# vtk DataFile Version 2.0
inlet
ASCII
DATASET POLYDATA
POINTS 12 float
0 0 0 0 0.5 0 0.333333 0.5 0 0.333333 0
0 0 1 0 0.333333 1 0 0.666667 0.5 0
0.666667 0 0 0.666667 1 0 1 0.5 0 1
0 0 1 1 0 
POLYGONS 6 30
4 0 1 2 3 4 1 4 5 2 4
3 2 6 7 4 2 5 8 6 4
7 6 9 10 4 6 8 11 9 
CELL_DATA 6
FIELD attributes 5
patchID 1 6 float
1 1 1 1 1 1 
gradTy 1 6 float
-2.55795e-13 -3.41061e-13 0 0 0 0 
gradTx 1 6 float
-3.9222e-12 -3.41061e-12 9.0381e-12 9.37916e-12 1.29603e-11 1.29603e-11 
T 1 6 float
573 573 573 573 573 573 
gradTz 1 6 float
-599.966 -599.966 -599.966 -599.966 -599.966 -599.966 
POINT_DATA  12
FIELD attributes 4
gradTy 1 12 float
-2.55795e-13 -2.98428e-13 -1.49214e-13 -1.27898e-13 -3.41061e-13 -1.70531e-13 0 0 0 0 0
0 
gradTx 1 12 float
-3.9222e-12 -3.6664e-12 2.77111e-12 2.55795e-12 -3.41061e-12 2.98427e-12 1.10845e-11 1.09992e-11 1.11697e-11 1.29603e-11 1.29603e-11
1.29603e-11 
T 1 12 float
573 573 573 573 573 573 573 573 573 573 573
573 
gradTz 1 12 float
-599.966 -599.966 -599.966 -599.966 -599.966 -599.966 -599.966 -599.966 -599.966 -599.966 -599.966
-599.966 
