# vtk DataFile Version 2.0
inlet
ASCII
DATASET POLYDATA
POINTS 12 float
0 0 0 0 0.5 0 0.333333 0.5 0 0.333333 0
0 0 1 0 0.333333 1 0 0.666667 0.5 0
0.666667 0 0 0.666667 1 0 1 0.5 0 1
0 0 1 1 0 
POLYGONS 6 30
4 0 1 2 3 4 1 4 5 2 4
3 2 6 7 4 2 5 8 6 4
7 6 9 10 4 6 8 11 9 
CELL_DATA 6
FIELD attributes 5
patchID 1 6 float
1 1 1 1 1 1 
gradTy 1 6 float
-7.67386e-13 -9.37916e-13 0 0 0 0 
gradTx 1 6 float
-1.73941e-11 -1.60298e-11 3.18892e-11 3.30829e-11 4.92832e-11 4.92832e-11 
T 1 6 float
573 573 573 573 573 573 
gradTz 1 6 float
-599.88 -599.88 -599.88 -599.88 -599.88 -599.88 
POINT_DATA  12
FIELD attributes 4
gradTy 1 12 float
-7.67386e-13 -8.52651e-13 -4.26326e-13 -3.83693e-13 -9.37916e-13 -4.68958e-13 0 0 0 0 0
0 
gradTx 1 12 float
-1.73941e-11 -1.67119e-11 7.88705e-12 7.24755e-12 -1.60298e-11 8.52655e-12 4.08846e-11 4.05862e-11 4.11831e-11 4.92832e-11 4.92832e-11
4.92832e-11 
T 1 12 float
573 573 573 573 573 573 573 573 573 573 573
573 
gradTz 1 12 float
-599.88 -599.88 -599.88 -599.88 -599.88 -599.88 -599.88 -599.88 -599.88 -599.88 -599.88
-599.88 
