# vtk DataFile Version 2.0
inlet
ASCII
DATASET POLYDATA
POINTS 12 float
0 0 0 0 0.5 0 0.333333 0.5 0 0.333333 0
0 0 1 0 0.333333 1 0 0.666667 0.5 0
0.666667 0 0 0.666667 1 0 1 0.5 0 1
0 0 1 1 0 
POLYGONS 6 30
4 0 1 2 3 4 1 4 5 2 4
3 2 6 7 4 2 5 8 6 4
7 6 9 10 4 6 8 11 9 
CELL_DATA 6
FIELD attributes 5
patchID 1 6 float
1 1 1 1 1 1 
gradTy 1 6 float
-1.02318e-12 -1.10845e-12 0 0 0 0 
gradTx 1 6 float
-1.97815e-11 -1.80762e-11 3.54703e-11 3.70051e-11 5.52518e-11 5.52518e-11 
T 1 6 float
573 573 573 573 573 573 
gradTz 1 6 float
-599.866 -599.866 -599.866 -599.866 -599.866 -599.866 
POINT_DATA  12
FIELD attributes 4
gradTy 1 12 float
-1.02318e-12 -1.06581e-12 -5.32907e-13 -5.1159e-13 -1.10845e-12 -5.54225e-13 0 0 0 0 0
0 
gradTx 1 12 float
-1.97815e-11 -1.89288e-11 8.65443e-12 7.8444e-12 -1.80762e-11 9.46445e-12 4.57447e-11 4.53611e-11 4.61284e-11 5.52518e-11 5.52518e-11
5.52518e-11 
T 1 12 float
573 573 573 573 573 573 573 573 573 573 573
573 
gradTz 1 12 float
-599.866 -599.866 -599.866 -599.866 -599.866 -599.866 -599.866 -599.866 -599.866 -599.866 -599.866
-599.866 
