# vtk DataFile Version 2.0
inlet
ASCII
DATASET POLYDATA
POINTS 12 float
0 0 0 0 0.5 0 0.333333 0.5 0 0.333333 0
0 0 1 0 0.333333 1 0 0.666667 0.5 0
0.666667 0 0 0.666667 1 0 1 0.5 0 1
0 0 1 1 0 
POLYGONS 6 30
4 0 1 2 3 4 1 4 5 2 4
3 2 6 7 4 2 5 8 6 4
7 6 9 10 4 6 8 11 9 
CELL_DATA 6
FIELD attributes 5
patchID 1 6 float
1 1 1 1 1 1 
gradTy 1 6 float
-1.02318e-12 -1.02318e-12 0 0 0 0 
gradTx 1 6 float
-1.51772e-11 -1.36424e-11 2.76259e-11 2.91607e-11 4.29736e-11 4.29736e-11 
T 1 6 float
573 573 573 573 573 573 
gradTz 1 6 float
-599.894 -599.894 -599.894 -599.894 -599.894 -599.894 
POINT_DATA  12
FIELD attributes 4
gradTy 1 12 float
-1.02318e-12 -1.02318e-12 -5.1159e-13 -5.1159e-13 -1.02318e-12 -5.1159e-13 0 0 0 0 0
0 
gradTx 1 12 float
-1.51772e-11 -1.44098e-11 6.99175e-12 6.22435e-12 -1.36424e-11 7.75915e-12 3.56834e-11 3.52997e-11 3.60671e-11 4.29736e-11 4.29736e-11
4.29736e-11 
T 1 12 float
573 573 573 573 573 573 573 573 573 573 573
573 
gradTz 1 12 float
-599.894 -599.894 -599.894 -599.894 -599.894 -599.894 -599.894 -599.894 -599.894 -599.894 -599.894
-599.894 
