# vtk DataFile Version 2.0
inlet
ASCII
DATASET POLYDATA
POINTS 12 float
0 0 0 0 0.5 0 0.333333 0.5 0 0.333333 0
0 0 1 0 0.333333 1 0 0.666667 0.5 0
0.666667 0 0 0.666667 1 0 1 0.5 0 1
0 0 1 1 0 
POLYGONS 6 30
4 0 1 2 3 4 1 4 5 2 4
3 2 6 7 4 2 5 8 6 4
7 6 9 10 4 6 8 11 9 
CELL_DATA 6
FIELD attributes 5
patchID 1 6 float
1 1 1 1 1 1 
gradTy 1 6 float
-1.10845e-12 -1.27898e-12 0 0 0 0 
gradTx 1 6 float
-1.46656e-11 -1.27898e-11 2.64322e-11 2.81375e-11 4.09273e-11 4.09273e-11 
T 1 6 float
573 573 573 573 573 573 
gradTz 1 6 float
-599.899 -599.899 -599.899 -599.899 -599.899 -599.899 
POINT_DATA  12
FIELD attributes 4
gradTy 1 12 float
-1.10845e-12 -1.19372e-12 -5.96858e-13 -5.54225e-13 -1.27898e-12 -6.3949e-13 0 0 0 0 0
0 
gradTx 1 12 float
-1.46656e-11 -1.37277e-11 6.77858e-12 5.8833e-12 -1.27898e-11 7.67385e-12 3.41061e-11 3.36797e-11 3.45324e-11 4.09273e-11 4.09273e-11
4.09273e-11 
T 1 12 float
573 573 573 573 573 573 573 573 573 573 573
573 
gradTz 1 12 float
-599.899 -599.899 -599.899 -599.899 -599.899 -599.899 -599.899 -599.899 -599.899 -599.899 -599.899
-599.899 
