# vtk DataFile Version 2.0
inlet
ASCII
DATASET POLYDATA
POINTS 12 float
0 0 0 0 0.5 0 0.333333 0.5 0 0.333333 0
0 0 1 0 0.333333 1 0 0.666667 0.5 0
0.666667 0 0 0.666667 1 0 1 0.5 0 1
0 0 1 1 0 
POLYGONS 6 30
4 0 1 2 3 4 1 4 5 2 4
3 2 6 7 4 2 5 8 6 4
7 6 9 10 4 6 8 11 9 
CELL_DATA 6
FIELD attributes 5
patchID 1 6 float
1 1 1 1 1 1 
gradTy 1 6 float
-3.41061e-13 -3.41061e-13 0 0 0 0 
gradTx 1 6 float
-4.60432e-12 -4.09273e-12 1.04023e-11 1.09139e-11 1.50067e-11 1.50067e-11 
T 1 6 float
573 573 573 573 573 573 
gradTz 1 6 float
-599.962 -599.962 -599.962 -599.962 -599.962 -599.962 
POINT_DATA  12
FIELD attributes 4
gradTy 1 12 float
-3.41061e-13 -3.41061e-13 -1.70531e-13 -1.70531e-13 -3.41061e-13 -1.70531e-13 0 0 0 0 0
0 
gradTx 1 12 float
-4.60432e-12 -4.34853e-12 3.15479e-12 2.89899e-12 -4.09273e-12 3.41058e-12 1.28324e-11 1.27045e-11 1.29603e-11 1.50067e-11 1.50067e-11
1.50067e-11 
T 1 12 float
573 573 573 573 573 573 573 573 573 573 573
573 
gradTz 1 12 float
-599.962 -599.962 -599.962 -599.962 -599.962 -599.962 -599.962 -599.962 -599.962 -599.962 -599.962
-599.962 
