# vtk DataFile Version 2.0
inlet
ASCII
DATASET POLYDATA
POINTS 12 float
0 0 0 0 0.5 0 0.333333 0.5 0 0.333333 0
0 0 1 0 0.333333 1 0 0.666667 0.5 0
0.666667 0 0 0.666667 1 0 1 0.5 0 1
0 0 1 1 0 
POLYGONS 6 30
4 0 1 2 3 4 1 4 5 2 4
3 2 6 7 4 2 5 8 6 4
7 6 9 10 4 6 8 11 9 
CELL_DATA 6
FIELD attributes 5
patchID 1 6 float
1 1 1 1 1 1 
gradTy 1 6 float
-5.96856e-13 -6.82121e-13 0 0 0 0 
gradTx 1 6 float
-9.54969e-12 -8.69704e-12 1.75646e-11 1.85878e-11 2.72848e-11 2.72848e-11 
T 1 6 float
573 573 573 573 573 573 
gradTz 1 6 float
-599.933 -599.933 -599.933 -599.933 -599.933 -599.933 
POINT_DATA  12
FIELD attributes 4
gradTy 1 12 float
-5.96856e-13 -6.39489e-13 -3.19744e-13 -2.98428e-13 -6.82121e-13 -3.41061e-13 0 0 0 0 0
0 
gradTx 1 12 float
-9.54969e-12 -9.12337e-12 4.47642e-12 4.00745e-12 -8.69704e-12 4.94538e-12 2.26805e-11 2.24247e-11 2.29363e-11 2.72848e-11 2.72848e-11
2.72848e-11 
T 1 12 float
573 573 573 573 573 573 573 573 573 573 573
573 
gradTz 1 12 float
-599.933 -599.933 -599.933 -599.933 -599.933 -599.933 -599.933 -599.933 -599.933 -599.933 -599.933
-599.933 
