# vtk DataFile Version 2.0
inlet
ASCII
DATASET POLYDATA
POINTS 12 float
0 0 0 0 0.5 0 0.333333 0.5 0 0.333333 0
0 0 1 0 0.333333 1 0 0.666667 0.5 0
0.666667 0 0 0.666667 1 0 1 0.5 0 1
0 0 1 1 0 
POLYGONS 6 30
4 0 1 2 3 4 1 4 5 2 4
3 2 6 7 4 2 5 8 6 4
7 6 9 10 4 6 8 11 9 
CELL_DATA 6
FIELD attributes 5
patchID 1 6 float
1 1 1 1 1 1 
gradTy 1 6 float
-1.10845e-12 -1.19371e-12 0 0 0 0 
gradTx 1 6 float
-1.80762e-11 -1.63709e-11 3.29123e-11 3.46176e-11 5.0818e-11 5.0818e-11 
T 1 6 float
573 573 573 573 573 573 
gradTz 1 6 float
-599.875 -599.875 -599.875 -599.875 -599.875 -599.875 
POINT_DATA  12
FIELD attributes 4
gradTy 1 12 float
-1.10845e-12 -1.15108e-12 -5.7554e-13 -5.54225e-13 -1.19371e-12 -5.96855e-13 0 0 0 0 0
0 
gradTx 1 12 float
-1.80762e-11 -1.72236e-11 8.2707e-12 7.41805e-12 -1.63709e-11 9.12335e-12 4.22915e-11 4.18652e-11 4.27178e-11 5.0818e-11 5.0818e-11
5.0818e-11 
T 1 12 float
573 573 573 573 573 573 573 573 573 573 573
573 
gradTz 1 12 float
-599.875 -599.875 -599.875 -599.875 -599.875 -599.875 -599.875 -599.875 -599.875 -599.875 -599.875
-599.875 
