# vtk DataFile Version 2.0
inlet
ASCII
DATASET POLYDATA
POINTS 12 float
0 0 0 0 0.5 0 0.333333 0.5 0 0.333333 0
0 0 1 0 0.333333 1 0 0.666667 0.5 0
0.666667 0 0 0.666667 1 0 1 0.5 0 1
0 0 1 1 0 
POLYGONS 6 30
4 0 1 2 3 4 1 4 5 2 4
3 2 6 7 4 2 5 8 6 4
7 6 9 10 4 6 8 11 9 
CELL_DATA 6
FIELD attributes 5
patchID 1 6 float
1 1 1 1 1 1 
gradTy 1 6 float
-1.02318e-12 -1.19371e-12 0 0 0 0 
gradTx 1 6 float
-1.87583e-11 -1.72236e-11 3.41061e-11 3.58114e-11 5.28644e-11 5.28644e-11 
T 1 6 float
573 573 573 573 573 573 
gradTz 1 6 float
-599.87 -599.87 -599.87 -599.87 -599.87 -599.87 
POINT_DATA  12
FIELD attributes 4
gradTy 1 12 float
-1.02318e-12 -1.10845e-12 -5.54223e-13 -5.1159e-13 -1.19371e-12 -5.96855e-13 0 0 0 0 0
0 
gradTx 1 12 float
-1.87583e-11 -1.7991e-11 8.4839e-12 7.6739e-12 -1.72236e-11 9.2939e-12 4.39116e-11 4.34853e-11 4.43379e-11 5.28644e-11 5.28644e-11
5.28644e-11 
T 1 12 float
573 573 573 573 573 573 573 573 573 573 573
573 
gradTz 1 12 float
-599.87 -599.87 -599.87 -599.87 -599.87 -599.87 -599.87 -599.87 -599.87 -599.87 -599.87
-599.87 
