# vtk DataFile Version 2.0
inlet
ASCII
DATASET POLYDATA
POINTS 12 float
0 0 0 0 0.5 0 0.333333 0.5 0 0.333333 0
0 0 1 0 0.333333 1 0 0.666667 0.5 0
0.666667 0 0 0.666667 1 0 1 0.5 0 1
0 0 1 1 0 
POLYGONS 6 30
4 0 1 2 3 4 1 4 5 2 4
3 2 6 7 4 2 5 8 6 4
7 6 9 10 4 6 8 11 9 
CELL_DATA 6
FIELD attributes 5
patchID 1 6 float
1 1 1 1 1 1 
gradTy 1 6 float
-8.52651e-13 -8.52651e-13 0 0 0 0 
gradTx 1 6 float
-1.29603e-11 -1.15961e-11 2.40448e-11 2.52385e-11 3.68345e-11 3.68345e-11 
T 1 6 float
573 573 573 573 573 573 
gradTz 1 6 float
-599.909 -599.909 -599.909 -599.909 -599.909 -599.909 
POINT_DATA  12
FIELD attributes 4
gradTy 1 12 float
-8.52651e-13 -8.52651e-13 -4.26326e-13 -4.26326e-13 -8.52651e-13 -4.26326e-13 0 0 0 0 0
0 
gradTx 1 12 float
-1.29603e-11 -1.22782e-11 6.18172e-12 5.54225e-12 -1.15961e-11 6.8212e-12 3.07381e-11 3.04397e-11 3.10365e-11 3.68345e-11 3.68345e-11
3.68345e-11 
T 1 12 float
573 573 573 573 573 573 573 573 573 573 573
573 
gradTz 1 12 float
-599.909 -599.909 -599.909 -599.909 -599.909 -599.909 -599.909 -599.909 -599.909 -599.909 -599.909
-599.909 
