# vtk DataFile Version 2.0
inlet
ASCII
DATASET POLYDATA
POINTS 12 float
0 0 0 0 0.5 0 0.333333 0.5 0 0.333333 0
0 0 1 0 0.333333 1 0 0.666667 0.5 0
0.666667 0 0 0.666667 1 0 1 0.5 0 1
0 0 1 1 0 
POLYGONS 6 30
4 0 1 2 3 4 1 4 5 2 4
3 2 6 7 4 2 5 8 6 4
7 6 9 10 4 6 8 11 9 
CELL_DATA 6
FIELD attributes 5
patchID 1 6 float
1 1 1 1 1 1 
gradTy 1 6 float
-9.37916e-13 -1.02318e-12 0 0 0 0 
gradTx 1 6 float
-1.63709e-11 -1.50067e-11 3.06954e-11 3.22302e-11 4.70664e-11 4.70664e-11 
T 1 6 float
573 573 573 573 573 573 
gradTz 1 6 float
-599.885 -599.885 -599.885 -599.885 -599.885 -599.885 
POINT_DATA  12
FIELD attributes 4
gradTy 1 12 float
-9.37916e-13 -9.80548e-13 -4.90274e-13 -4.68958e-13 -1.02318e-12 -5.1159e-13 0 0 0 0 0
0 
gradTx 1 12 float
-1.63709e-11 -1.56888e-11 7.887e-12 7.16225e-12 -1.50067e-11 8.61175e-12 3.92646e-11 3.88809e-11 3.96483e-11 4.70664e-11 4.70664e-11
4.70664e-11 
T 1 12 float
573 573 573 573 573 573 573 573 573 573 573
573 
gradTz 1 12 float
-599.885 -599.885 -599.885 -599.885 -599.885 -599.885 -599.885 -599.885 -599.885 -599.885 -599.885
-599.885 
