# vtk DataFile Version 2.0
inlet
ASCII
DATASET POLYDATA
POINTS 12 float
0 0 0 0 0.5 0 0.333333 0.5 0 0.333333 0
0 0 1 0 0.333333 1 0 0.666667 0.5 0
0.666667 0 0 0.666667 1 0 1 0.5 0 1
0 0 1 1 0 
POLYGONS 6 30
4 0 1 2 3 4 1 4 5 2 4
3 2 6 7 4 2 5 8 6 4
7 6 9 10 4 6 8 11 9 
CELL_DATA 6
FIELD attributes 5
patchID 1 6 float
1 1 1 1 1 1 
gradTy 1 6 float
-3.41061e-13 -3.41061e-13 0 0 2.55795e-13 8.52651e-14 
gradTx 1 6 float
-6.13909e-12 -5.6275e-12 1.27898e-11 1.36424e-11 1.90994e-11 1.92699e-11 
T 1 6 float
573 573 573 573 573 573 
gradTz 1 6 float
-599.952 -599.952 -599.952 -599.952 -599.952 -599.952 
POINT_DATA  12
FIELD attributes 4
gradTy 1 12 float
-3.41061e-13 -3.41061e-13 -1.70531e-13 -1.70531e-13 -3.41061e-13 -1.70531e-13 8.5265e-14 1.27898e-13 4.26326e-14 1.7053e-13 2.55795e-13
8.52651e-14 
gradTx 1 12 float
-6.13909e-12 -5.8833e-12 3.6664e-12 3.32535e-12 -5.6275e-12 4.00745e-12 1.62004e-11 1.59446e-11 1.64562e-11 1.91847e-11 1.90994e-11
1.92699e-11 
T 1 12 float
573 573 573 573 573 573 573 573 573 573 573
573 
gradTz 1 12 float
-599.952 -599.952 -599.952 -599.952 -599.952 -599.952 -599.952 -599.952 -599.952 -599.952 -599.952
-599.952 
