# vtk DataFile Version 2.0
inlet
ASCII
DATASET POLYDATA
POINTS 12 float
0 0 0 0 0.5 0 0.333333 0.5 0 0.333333 0
0 0 1 0 0.333333 1 0 0.666667 0.5 0
0.666667 0 0 0.666667 1 0 1 0.5 0 1
0 0 1 1 0 
POLYGONS 6 30
4 0 1 2 3 4 1 4 5 2 4
3 2 6 7 4 2 5 8 6 4
7 6 9 10 4 6 8 11 9 
CELL_DATA 6
FIELD attributes 5
patchID 1 6 float
1 1 1 1 1 1 
gradTy 1 6 float
-8.52651e-14 -8.52651e-14 0 0 0 0 
gradTx 1 6 float
-2.89901e-12 -2.72848e-12 7.50333e-12 7.67386e-12 1.05729e-11 1.05729e-11 
T 1 6 float
573 573 573 573 573 573 
gradTz 1 6 float
-599.971 -599.971 -599.971 -599.971 -599.971 -599.971 
POINT_DATA  12
FIELD attributes 4
gradTy 1 12 float
-8.52651e-14 -8.52651e-14 -4.26326e-14 -4.26326e-14 -8.52651e-14 -4.26326e-14 0 0 0 0 0
0 
gradTx 1 12 float
-2.89901e-12 -2.81374e-12 2.38742e-12 2.30216e-12 -2.72848e-12 2.47269e-12 9.08075e-12 9.03811e-12 9.12338e-12 1.05729e-11 1.05729e-11
1.05729e-11 
T 1 12 float
573 573 573 573 573 573 573 573 573 573 573
573 
gradTz 1 12 float
-599.971 -599.971 -599.971 -599.971 -599.971 -599.971 -599.971 -599.971 -599.971 -599.971 -599.971
-599.971 
