# vtk DataFile Version 2.0
inlet
ASCII
DATASET POLYDATA
POINTS 12 float
0 0 0 0 0.5 0 0.333333 0.5 0 0.333333 0
0 0 1 0 0.333333 1 0 0.666667 0.5 0
0.666667 0 0 0.666667 1 0 1 0.5 0 1
0 0 1 1 0 
POLYGONS 6 30
4 0 1 2 3 4 1 4 5 2 4
3 2 6 7 4 2 5 8 6 4
7 6 9 10 4 6 8 11 9 
CELL_DATA 6
FIELD attributes 5
patchID 1 6 float
1 1 1 1 1 1 
gradTy 1 6 float
-1.44951e-12 -1.62004e-12 0 0 -8.52651e-14 -8.52651e-14 
gradTx 1 6 float
-2.13163e-11 -1.90994e-11 3.73461e-11 3.9563e-11 5.86624e-11 5.84919e-11 
T 1 6 float
573 573 573 573 573 573 
gradTz 1 6 float
-599.856 -599.856 -599.856 -599.856 -599.856 -599.856 
POINT_DATA  12
FIELD attributes 4
gradTy 1 12 float
-1.44951e-12 -1.53478e-12 -7.67388e-13 -7.24755e-13 -1.62004e-12 -8.1002e-13 -4.26326e-14 -4.26326e-14 -4.26326e-14 -8.52651e-14 -8.52651e-14
-8.52651e-14 
gradTx 1 12 float
-2.13163e-11 -2.02078e-11 9.12335e-12 8.0149e-12 -1.90994e-11 1.02318e-11 4.85159e-11 4.80042e-11 4.90274e-11 5.85772e-11 5.86624e-11
5.84919e-11 
T 1 12 float
573 573 573 573 573 573 573 573 573 573 573
573 
gradTz 1 12 float
-599.856 -599.856 -599.856 -599.856 -599.856 -599.856 -599.856 -599.856 -599.856 -599.856 -599.856
-599.856 
