# vtk DataFile Version 2.0
inlet
ASCII
DATASET POLYDATA
POINTS 12 float
0 0 0 0 0.5 0 0.333333 0.5 0 0.333333 0
0 0 1 0 0.333333 1 0 0.666667 0.5 0
0.666667 0 0 0.666667 1 0 1 0.5 0 1
0 0 1 1 0 
POLYGONS 6 30
4 0 1 2 3 4 1 4 5 2 4
3 2 6 7 4 2 5 8 6 4
7 6 9 10 4 6 8 11 9 
CELL_DATA 6
FIELD attributes 5
patchID 1 6 float
1 1 1 1 1 1 
gradTy 1 6 float
-3.41061e-13 -3.41061e-13 0 0 8.52651e-14 8.52651e-14 
gradTx 1 6 float
-8.18545e-12 -7.67386e-12 1.50067e-11 1.56888e-11 2.33626e-11 2.35332e-11 
T 1 6 float
573 573 573 573 573 573 
gradTz 1 6 float
-599.942 -599.942 -599.942 -599.942 -599.942 -599.942 
POINT_DATA  12
FIELD attributes 4
gradTy 1 12 float
-3.41061e-13 -3.41061e-13 -1.70531e-13 -1.70531e-13 -3.41061e-13 -1.70531e-13 4.26326e-14 4.26326e-14 4.26326e-14 8.52651e-14 8.52651e-14
8.52651e-14 
gradTx 1 12 float
-8.18545e-12 -7.92966e-12 3.70905e-12 3.41063e-12 -7.67386e-12 4.00747e-12 1.93978e-11 1.91847e-11 1.9611e-11 2.34479e-11 2.33626e-11
2.35332e-11 
T 1 12 float
573 573 573 573 573 573 573 573 573 573 573
573 
gradTz 1 12 float
-599.942 -599.942 -599.942 -599.942 -599.942 -599.942 -599.942 -599.942 -599.942 -599.942 -599.942
-599.942 
