/*--------------------------------*- C++ -*----------------------------------*\
| =========                 |                                                 |
| \\      /  F ield         | OpenFOAM: The Open Source CFD Toolbox           |
|  \\    /   O peration     | Version:  4.0                                   |
|   \\  /    A nd           | Web:      www.OpenFOAM.org                      |
|    \\/     M anipulation  |                                                 |
\*---------------------------------------------------------------------------*/
FoamFile
{
    version     2.0;
    format      ascii;
    class       volScalarField;
    location    "2";
    object      gradTx;
}
// * * * * * * * * * * * * * * * * * * * * * * * * * * * * * * * * * * * * * //

dimensions      [0 -1 0 1 0 0 0];

internalField   nonuniform List<scalar> 
60
(
-1.4154e-11
2.48974e-11
3.90514e-11
-1.26192e-11
2.66027e-11
3.90514e-11
1.44951e-11
3.17186e-11
1.72236e-11
1.44951e-11
3.17186e-11
1.72236e-11
6.65068e-12
1.80762e-11
1.10845e-11
6.65068e-12
1.80762e-11
1.10845e-11
5.11591e-13
0
-5.11591e-13
5.11591e-13
1.36424e-12
6.82121e-13
5.11591e-13
-3.41061e-13
-1.02318e-12
5.11591e-13
-3.41061e-13
-1.02318e-12
5.11591e-13
0
-5.11591e-13
5.11591e-13
0
-5.11591e-13
5.11591e-13
-8.52651e-13
-1.36424e-12
5.11591e-13
-8.52651e-13
-1.36424e-12
-6.82121e-13
-8.52651e-13
-1.7053e-13
-6.82121e-13
-8.52651e-13
-1.7053e-13
5.11591e-13
1.36424e-12
6.82121e-13
5.11591e-13
-5.11591e-13
-1.19371e-12
3.41061e-13
1.02318e-12
5.11591e-13
3.41061e-13
1.02318e-12
5.11591e-13
)
;

boundaryField
{
    walls
    {
        type            calculated;
        value           nonuniform List<scalar> 
100
(
-1.26192e-11
1.44951e-11
6.65068e-12
5.11591e-13
5.11591e-13
5.11591e-13
5.11591e-13
-6.82121e-13
5.11591e-13
3.41061e-13
2.66027e-11
3.17186e-11
1.80762e-11
1.36424e-12
-3.41061e-13
0
-8.52651e-13
-8.52651e-13
-5.11591e-13
1.02318e-12
3.90514e-11
1.72236e-11
1.10845e-11
6.82121e-13
-1.02318e-12
-5.11591e-13
-1.36424e-12
-1.7053e-13
-1.19371e-12
5.11591e-13
0
0
0
0
0
0
0
0
0
0
0
0
0
0
0
0
0
0
0
0
0
0
0
0
0
0
0
0
0
0
0
0
0
0
0
0
0
0
0
0
-1.4154e-11
1.44951e-11
6.65068e-12
5.11591e-13
5.11591e-13
5.11591e-13
5.11591e-13
-6.82121e-13
5.11591e-13
3.41061e-13
2.48974e-11
3.17186e-11
1.80762e-11
0
-3.41061e-13
0
-8.52651e-13
-8.52651e-13
1.36424e-12
1.02318e-12
3.90514e-11
1.72236e-11
1.10845e-11
-5.11591e-13
-1.02318e-12
-5.11591e-13
-1.36424e-12
-1.7053e-13
6.82121e-13
5.11591e-13
)
;
    }
    inlet
    {
        type            calculated;
        value           nonuniform List<scalar> 6(-1.4154e-11 -1.26192e-11 2.48974e-11 2.66027e-11 3.90514e-11 3.90514e-11);
    }
    outlet
    {
        type            calculated;
        value           nonuniform List<scalar> 6(3.41061e-13 3.41061e-13 1.02318e-12 1.02318e-12 5.11591e-13 5.11591e-13);
    }
}


// ************************************************************************* //
