/*--------------------------------*- C++ -*----------------------------------*\
| =========                 |                                                 |
| \\      /  F ield         | OpenFOAM: The Open Source CFD Toolbox           |
|  \\    /   O peration     | Version:  4.0                                   |
|   \\  /    A nd           | Web:      www.OpenFOAM.org                      |
|    \\/     M anipulation  |                                                 |
\*---------------------------------------------------------------------------*/
FoamFile
{
    version     2.0;
    format      ascii;
    class       volScalarField;
    location    "2.5";
    object      gradTz;
}
// * * * * * * * * * * * * * * * * * * * * * * * * * * * * * * * * * * * * * //

dimensions      [0 -1 0 1 0 0 0];

internalField   nonuniform List<scalar> 
40
(
-299.97
-299.97
-299.97
-299.97
-0.0299955
-0.0299955
-0.0299955
-0.0299955
-1.50274e-06
-1.50274e-06
-1.50274e-06
-1.50274e-06
-5.28644e-11
-5.28644e-11
-5.28644e-11
-5.28644e-11
0
0
0
0
0
0
0
0
0
0
0
0
0
0
0
0
1.42109e-11
1.42109e-11
1.42109e-11
1.42109e-11
-1.42109e-11
-1.42109e-11
-1.42109e-11
-1.42109e-11
)
;

boundaryField
{
    walls
    {
        type            calculated;
        value           nonuniform List<scalar> 
80
(
-299.97
-0.0299955
-1.50274e-06
-5.28644e-11
0
0
0
0
1.42109e-11
-1.42109e-11
-299.97
-0.0299955
-1.50274e-06
-5.28644e-11
0
0
0
0
1.42109e-11
-1.42109e-11
-299.97
-299.97
-0.0299955
-0.0299955
-1.50274e-06
-1.50274e-06
-5.28644e-11
-5.28644e-11
0
0
0
0
0
0
0
0
1.42109e-11
1.42109e-11
-1.42109e-11
-1.42109e-11
-299.97
-299.97
-0.0299955
-0.0299955
-1.50274e-06
-1.50274e-06
-5.28644e-11
-5.28644e-11
0
0
0
0
0
0
0
0
1.42109e-11
1.42109e-11
-1.42109e-11
-1.42109e-11
-299.97
-0.0299955
-1.50274e-06
-5.28644e-11
0
0
0
0
1.42109e-11
-1.42109e-11
-299.97
-0.0299955
-1.50274e-06
-5.28644e-11
0
0
0
0
1.42109e-11
-1.42109e-11
)
;
    }
    inlet
    {
        type            calculated;
        value           uniform -599.88;
    }
    outlet
    {
        type            calculated;
        value           uniform -5.68434e-11;
    }
}


// ************************************************************************* //
