# vtk DataFile Version 2.0
flange
ASCII
DATASET UNSTRUCTURED_GRID
POINTS 132 float
0 0 0 0.333333 0 0 0.666667 0 0 1 0
0 0 0.5 0 0.333333 0.5 0 0.666667 0.5 0
1 0.5 0 0 1 0 0.333333 1 0 0.666667
1 0 1 1 0 0 0 1 0.333333 0
1 0.666667 0 1 1 0 1 0 0.5 1
0.333333 0.5 1 0.666667 0.5 1 1 0.5 1 0
1 1 0.333333 1 1 0.666667 1 1 1 1
1 0 0 2 0.333333 0 2 0.666667 0 2
1 0 2 0 0.5 2 0.333333 0.5 2 0.666667
0.5 2 1 0.5 2 0 1 2 0.333333 1
2 0.666667 1 2 1 1 2 0 0 3
0.333333 0 3 0.666667 0 3 1 0 3 0
0.5 3 0.333333 0.5 3 0.666667 0.5 3 1 0.5
3 0 1 3 0.333333 1 3 0.666667 1 3
1 1 3 0 0 4 0.333333 0 4 0.666667
0 4 1 0 4 0 0.5 4 0.333333 0.5
4 0.666667 0.5 4 1 0.5 4 0 1 4
0.333333 1 4 0.666667 1 4 1 1 4 0
0 5 0.333333 0 5 0.666667 0 5 1 0
5 0 0.5 5 0.333333 0.5 5 0.666667 0.5 5
1 0.5 5 0 1 5 0.333333 1 5 0.666667
1 5 1 1 5 0 0 6 0.333333 0
6 0.666667 0 6 1 0 6 0 0.5 6
0.333333 0.5 6 0.666667 0.5 6 1 0.5 6 0
1 6 0.333333 1 6 0.666667 1 6 1 1
6 0 0 7 0.333333 0 7 0.666667 0 7
1 0 7 0 0.5 7 0.333333 0.5 7 0.666667
0.5 7 1 0.5 7 0 1 7 0.333333 1
7 0.666667 1 7 1 1 7 0 0 8
0.333333 0 8 0.666667 0 8 1 0 8 0
0.5 8 0.333333 0.5 8 0.666667 0.5 8 1 0.5
8 0 1 8 0.333333 1 8 0.666667 1 8
1 1 8 0 0 9 0.333333 0 9 0.666667
0 9 1 0 9 0 0.5 9 0.333333 0.5
9 0.666667 0.5 9 1 0.5 9 0 1 9
0.333333 1 9 0.666667 1 9 1 1 9 0
0 10 0.333333 0 10 0.666667 0 10 1 0
10 0 0.5 10 0.333333 0.5 10 0.666667 0.5 10
1 0.5 10 0 1 10 0.333333 1 10 0.666667
1 10 1 1 10 
CELLS 60 540
8 1 13 17 5 0 12 16 4 8 2
14 18 6 1 13 17 5 8 6 7
19 18 2 3 15 14 8 5 17 21
9 4 16 20 8 8 6 18 22 10
5 17 21 9 8 18 22 23 19 6
10 11 7 8 13 25 29 17 12 24
28 16 8 14 26 30 18 13 25 29
17 8 18 19 31 30 14 15 27 26
8 17 29 33 21 16 28 32 20 8
18 30 34 22 17 29 33 21 8 30
34 35 31 18 22 23 19 8 25 37
41 29 24 36 40 28 8 26 38 42
30 25 37 41 29 8 30 31 43 42
26 27 39 38 8 29 41 45 33 28
40 44 32 8 30 42 46 34 29 41
45 33 8 42 46 47 43 30 34 35
31 8 37 49 53 41 36 48 52 40
8 38 50 54 42 37 49 53 41 8
42 43 55 54 38 39 51 50 8 41
53 57 45 40 52 56 44 8 42 54
58 46 41 53 57 45 8 54 58 59
55 42 46 47 43 8 49 61 65 53
48 60 64 52 8 50 62 66 54 49
61 65 53 8 54 55 67 66 50 51
63 62 8 53 65 69 57 52 64 68
56 8 54 66 70 58 53 65 69 57
8 66 70 71 67 54 58 59 55 8
61 73 77 65 60 72 76 64 8 62
74 78 66 61 73 77 65 8 66 67
79 78 62 63 75 74 8 65 77 81
69 64 76 80 68 8 66 78 82 70
65 77 81 69 8 78 82 83 79 66
70 71 67 8 73 85 89 77 72 84
88 76 8 74 86 90 78 73 85 89
77 8 78 79 91 90 74 75 87 86
8 77 89 93 81 76 88 92 80 8
78 90 94 82 77 89 93 81 8 90
94 95 91 78 82 83 79 8 85 97
101 89 84 96 100 88 8 86 98 102
90 85 97 101 89 8 90 91 103 102
86 87 99 98 8 89 101 105 93 88
100 104 92 8 90 102 106 94 89 101
105 93 8 102 106 107 103 90 94 95
91 8 97 109 113 101 96 108 112 100
8 98 110 114 102 97 109 113 101 8
102 103 115 114 98 99 111 110 8 101
113 117 105 100 112 116 104 8 102 114
118 106 101 113 117 105 8 114 118 119
115 102 106 107 103 8 109 121 125 113
108 120 124 112 8 110 122 126 114 109
121 125 113 8 114 115 127 126 110 111
123 122 8 113 125 129 117 112 124 128
116 8 114 126 130 118 113 125 129 117
8 118 119 131 130 114 115 127 126 
CELL_TYPES 60
12 12 12 12 12 12 12 12 12 12 12
12 12 12 12 12 12 12 12 12 12
12 12 12 12 12 12 12 12 12 12
12 12 12 12 12 12 12 12 12 12
12 12 12 12 12 12 12 12 12 12
12 12 12 12 12 12 12 12 12 
CELL_DATA 60
FIELD attributes 5
cellID 1 60 int
0 1 2 3 4 5 6 7 8 9 10
11 12 13 14 15 16 17 18 19 20
21 22 23 24 25 26 27 28 29 30
31 32 33 34 35 36 37 38 39 40
41 42 43 44 45 46 47 48 49 50
51 52 53 54 55 56 57 58 59 
gradTy 1 60 float
-2.55795e-13 0 0 -3.41061e-13 0 0 0 0 0 0 0
0 0 0 0 0 0 0 0 0 7.67386e-13
0 0 9.37916e-13 0 0 0 0 0 0 0
0 0 0 0 0 0 0 0 0 0
0 0 0 0 0 0 0 0 0 -1.27898e-12
0 0 -1.19371e-12 0 0 0 0 0 0 
gradTx 1 60 float
-4.60432e-12 1.17666e-11 1.65414e-11 -4.26326e-12 1.22782e-11 1.65414e-11 6.48015e-12 1.43245e-11 7.84439e-12 6.48015e-12 1.43245e-11
7.84439e-12 5.11591e-13 2.38742e-12 1.53477e-12 5.11591e-13 2.38742e-12 1.53477e-12 5.11591e-13 0 -5.11591e-13
5.11591e-13 1.36424e-12 6.82121e-13 5.11591e-13 -3.41061e-13 -1.02318e-12 5.11591e-13 -3.41061e-13 -1.02318e-12 5.11591e-13
0 -5.11591e-13 5.11591e-13 0 -5.11591e-13 5.11591e-13 -8.52651e-13 -1.36424e-12 5.11591e-13 -8.52651e-13
-1.36424e-12 -6.82121e-13 -8.52651e-13 -1.7053e-13 -6.82121e-13 -8.52651e-13 -1.7053e-13 5.11591e-13 1.36424e-12 6.82121e-13
5.11591e-13 -5.11591e-13 -1.19371e-12 3.41061e-13 1.02318e-12 5.11591e-13 3.41061e-13 1.02318e-12 5.11591e-13 
T 1 60 float
273.022 273.022 273.022 273.022 273.022 273.022 273 273 273 273 273
273 273 273 273 273 273 273 273 273 273
273 273 273 273 273 273 273 273 273 273
273 273 273 273 273 273 273 273 273 273
273 273 273 273 273 273 273 273 273 273
273 273 273 273 273 273 273 273 273 
gradTz 1 60 float
-299.989 -299.989 -299.989 -299.989 -299.989 -299.989 -0.0107994 -0.0107994 -0.0107994 -0.0107994 -0.0107994
-0.0107994 -1.95463e-07 -1.95465e-07 -1.95468e-07 -1.95463e-07 -1.95465e-07 -1.95467e-07 -1.7053e-13 -1.7053e-13 -9.80549e-13
-1.27898e-13 -1.7053e-13 -1.02318e-12 0 0 -4.26326e-14 0 0 -4.68958e-13 1.27898e-13
1.27898e-13 4.26326e-14 1.27898e-13 1.27898e-13 4.26326e-14 4.26326e-13 4.26326e-14 1.27898e-13 4.26326e-13 4.26326e-14
1.27898e-13 -8.52651e-14 -1.7053e-13 5.54223e-13 -1.7053e-13 -1.7053e-13 -4.26326e-14 -3.41061e-13 8.52651e-14 2.98428e-13
-2.55795e-13 8.52651e-14 2.55795e-13 7.24754e-13 3.83693e-13 0 7.24754e-13 3.83693e-13 6.39488e-13 
POINT_DATA  132
FIELD attributes 4
gradTy 1 132 float
-1.86604e-13 -8.14588e-14 0 0 -2.98428e-13 -1.49214e-13 0 0 -2.48806e-13 -1.08612e-13 0
0 -6.20663e-14 0 0 0 -1.49214e-13 -7.4607e-14 0 0 -8.27553e-14
0 0 0 0 0 0 0 0 0 0
0 0 0 0 0 0 0 0 1.86199e-13 0
0 2.13163e-13 4.26326e-13 0 0 0 2.27577e-13 0 0 0
1.86199e-13 0 0 2.13163e-13 4.26326e-13 0 0 0 2.27577e-13 0
0 0 0 0 0 0 0 0 0 0
0 0 0 0 0 0 0 0 0 0
0 0 0 0 0 0 0 0 0 0
0 0 0 0 0 0 0 0 -3.10333e-13 0
0 -3.09086e-13 -6.18173e-13 0 0 0 -2.89643e-13 0 0 0
-3.10333e-13 0 0 -3.09086e-13 -6.18173e-13 0 0 0 -2.89643e-13 0
0 0 0 0 0 0 0 0 0 0
0 
gradTx 1 132 float
-3.4301e-12 3.58114e-12 1.4154e-11 1.23229e-11 -2.8838e-12 3.79431e-12 1.42819e-11 1.07587e-11 -3.17602e-12 4.00747e-12 1.44098e-11
1.23229e-11 4.82762e-13 6.99173e-12 1.26192e-11 6.27591e-12 0 7.09831e-12 1.26832e-11 0 5.70537e-13
7.2049e-12 1.27471e-11 6.27591e-12 1.79939e-12 5.92592e-12 6.52277e-12 2.41381e-12 0 5.92592e-12 6.52277e-12
0 1.79939e-12 5.92592e-12 6.52277e-12 2.41381e-12 2.63325e-13 8.52651e-13 8.5265e-13 2.63325e-13 0
1.02318e-12 1.17239e-12 0 2.63325e-13 1.19371e-12 1.49214e-12 5.70538e-13 2.63325e-13 1.7053e-13 -4.68958e-13
-3.94988e-13 0 3.4106e-13 -1.49214e-13 0 2.63325e-13 5.1159e-13 1.7053e-13 -8.77747e-14 2.63325e-13
1.7053e-13 -4.68958e-13 -3.94988e-13 0 1.7053e-13 -4.68958e-13 0 2.63325e-13 1.7053e-13 -4.68958e-13
-3.94988e-13 2.63325e-13 4.26328e-14 -6.8212e-13 -4.82763e-13 0 4.26328e-14 -6.8212e-13 0 2.63325e-13
4.26328e-14 -6.8212e-13 -4.82763e-13 -4.38875e-14 -4.68958e-13 -8.10018e-13 -3.94987e-13 0 -4.68958e-13 -8.10018e-13
0 -4.38875e-14 -4.68958e-13 -8.10018e-13 -3.94987e-13 -4.38875e-14 8.52647e-14 2.55795e-13 1.31663e-13 0
-1.49214e-13 -2.13163e-13 0 -4.38875e-14 -3.83693e-13 -6.8212e-13 -3.511e-13 2.19438e-13 8.10018e-13 8.95283e-13
3.07213e-13 0 5.75539e-13 4.26325e-13 0 2.19438e-13 3.4106e-13 -4.26325e-14 -1.7555e-13 2.54082e-13
6.8212e-13 7.67386e-13 3.81122e-13 2.21831e-13 6.8212e-13 7.67386e-13 3.32746e-13 2.54082e-13 6.8212e-13 7.67386e-13
3.81122e-13 
T 1 132 float
415.355 464.08 464.08 415.355 468.132 573 573 468.132 415.355 464.08 464.08
415.355 273.011 273.011 273.011 273.011 273.011 273.011 273.011 273.011 273.011
273.011 273.011 273.011 273 273 273 273 273 273 273
273 273 273 273 273 273 273 273 273 273
273 273 273 273 273 273 273 273 273 273
273 273 273 273 273 273 273 273 273 273
273 273 273 273 273 273 273 273 273 273
273 273 273 273 273 273 273 273 273 273
273 273 273 273 273 273 273 273 273 273
273 273 273 273 273 273 273 273 273 273
273 273 273 273 273 273 273 273 273 273
273 273 273 273 273 273 273 273 273 273
273 273 273 273 273 273 273 273 273 273
273 
gradTz 1 132 float
-442.318 -491.041 -491.041 -442.318 -495.092 -599.957 -599.957 -495.092 -442.318 -491.041 -491.041
-442.318 -150 -150 -150 -150 -150 -150 -150 -150 -150
-150 -150 -150 -0.0053998 -0.0053998 -0.0053998 -0.0053998 -0.0053998 -0.0053998 -0.0053998
-0.0053998 -0.0053998 -0.0053998 -0.0053998 -0.0053998 -9.77316e-08 -9.77321e-08 -9.77335e-08 -9.77345e-08 -9.77316e-08
-9.77321e-08 -9.77334e-08 -9.77343e-08 -9.77316e-08 -9.77321e-08 -9.77333e-08 -9.7734e-08 -8.5265e-14 -8.5265e-14 -2.98428e-13
-5.11591e-13 -7.4607e-14 -7.9936e-14 -3.57047e-13 -6.2883e-13 -6.3949e-14 -7.4607e-14 -4.15667e-13 -7.46069e-13 6.3949e-14
6.3949e-14 3.19745e-14 1.41995e-29 6.3949e-14 6.3949e-14 -2.13162e-14 -1.06581e-13 6.3949e-14 6.3949e-14 -7.46069e-14
-2.13163e-13 2.77112e-13 1.81189e-13 8.52653e-14 8.52653e-14 2.77112e-13 1.81189e-13 8.52653e-14 8.52653e-14 2.77112e-13
1.81189e-13 8.52653e-14 8.52653e-14 1.7053e-13 5.32909e-14 1.38556e-13 3.41061e-13 1.49214e-13 4.26328e-14 6.39489e-14
1.91847e-13 1.27898e-13 3.19747e-14 -1.0658e-14 4.26327e-14 -2.13163e-13 -1.27898e-13 1.91847e-13 4.26326e-13 -2.13163e-13
-1.27898e-13 1.1191e-13 2.66453e-13 -2.13162e-13 -1.27897e-13 3.19744e-14 1.06581e-13 1.91846e-13 2.13163e-13 1.91847e-13
1.49214e-13 2.13163e-13 2.23821e-13 2.66453e-13 2.98428e-13 2.3448e-13 2.34479e-13 3.4106e-13 4.47641e-13 9.74238e-13
8.16704e-13 2.86882e-13 0 1.06675e-12 9.66341e-13 3.41061e-13 1.11778e-13 9.74238e-13 8.16704e-13 4.02979e-13
3.36064e-13 
