/*--------------------------------*- C++ -*----------------------------------*\
| =========                 |                                                 |
| \\      /  F ield         | OpenFOAM: The Open Source CFD Toolbox           |
|  \\    /   O peration     | Version:  4.0                                   |
|   \\  /    A nd           | Web:      www.OpenFOAM.org                      |
|    \\/     M anipulation  |                                                 |
\*---------------------------------------------------------------------------*/
FoamFile
{
    version     2.0;
    format      ascii;
    class       volScalarField;
    location    "2.7";
    object      gradTz;
}
// * * * * * * * * * * * * * * * * * * * * * * * * * * * * * * * * * * * * * //

dimensions      [0 -1 0 1 0 0 0];

internalField   nonuniform List<scalar> 
40
(
-299.968
-299.968
-299.968
-299.968
-0.0323947
-0.0323947
-0.0323947
-0.0323947
-1.75252e-06
-1.75252e-06
-1.75252e-06
-1.75252e-06
-6.62794e-11
-6.62794e-11
-6.62794e-11
-6.62794e-11
0
0
0
0
0
0
0
0
0
0
0
0
0
0
0
0
1.53477e-11
1.53477e-11
1.53477e-11
1.53477e-11
-1.53477e-11
-1.53477e-11
-1.53477e-11
-1.53477e-11
)
;

boundaryField
{
    walls
    {
        type            calculated;
        value           nonuniform List<scalar> 
80
(
-299.968
-0.0323947
-1.75252e-06
-6.62794e-11
0
0
0
0
1.53477e-11
-1.53477e-11
-299.968
-0.0323947
-1.75252e-06
-6.62794e-11
0
0
0
0
1.53477e-11
-1.53477e-11
-299.968
-299.968
-0.0323947
-0.0323947
-1.75252e-06
-1.75252e-06
-6.62794e-11
-6.62794e-11
0
0
0
0
0
0
0
0
1.53477e-11
1.53477e-11
-1.53477e-11
-1.53477e-11
-299.968
-299.968
-0.0323947
-0.0323947
-1.75252e-06
-1.75252e-06
-6.62794e-11
-6.62794e-11
0
0
0
0
0
0
0
0
1.53477e-11
1.53477e-11
-1.53477e-11
-1.53477e-11
-299.968
-0.0323947
-1.75252e-06
-6.62794e-11
0
0
0
0
1.53477e-11
-1.53477e-11
-299.968
-0.0323947
-1.75252e-06
-6.62794e-11
0
0
0
0
1.53477e-11
-1.53477e-11
)
;
    }
    inlet
    {
        type            calculated;
        value           uniform -599.87;
    }
    outlet
    {
        type            calculated;
        value           uniform -6.13909e-11;
    }
}


// ************************************************************************* //
