/*--------------------------------*- C++ -*----------------------------------*\
| =========                 |                                                 |
| \\      /  F ield         | OpenFOAM: The Open Source CFD Toolbox           |
|  \\    /   O peration     | Version:  4.0                                   |
|   \\  /    A nd           | Web:      www.OpenFOAM.org                      |
|    \\/     M anipulation  |                                                 |
\*---------------------------------------------------------------------------*/
FoamFile
{
    version     2.0;
    format      ascii;
    class       volScalarField;
    location    "1.3";
    object      gradTz;
}
// * * * * * * * * * * * * * * * * * * * * * * * * * * * * * * * * * * * * * //

dimensions      [0 -1 0 1 0 0 0];

internalField   nonuniform List<scalar> 
40
(
-299.984
-299.984
-299.984
-299.984
-0.0155988
-0.0155988
-0.0155988
-0.0155988
-4.07123e-07
-4.07123e-07
-4.07123e-07
-4.07123e-07
-8.12861e-12
-8.12861e-12
-8.12861e-12
-8.12861e-12
0
0
0
0
0
0
0
0
0
0
0
0
0
0
0
0
7.38964e-12
7.38964e-12
7.38964e-12
7.38964e-12
-7.38964e-12
-7.38964e-12
-7.38964e-12
-7.38964e-12
)
;

boundaryField
{
    walls
    {
        type            calculated;
        value           nonuniform List<scalar> 
80
(
-299.984
-0.0155988
-4.07123e-07
-8.12861e-12
0
0
0
0
7.38964e-12
-7.38964e-12
-299.984
-0.0155988
-4.07123e-07
-8.12861e-12
0
0
0
0
7.38964e-12
-7.38964e-12
-299.984
-299.984
-0.0155988
-0.0155988
-4.07123e-07
-4.07123e-07
-8.12861e-12
-8.12861e-12
0
0
0
0
0
0
0
0
7.38964e-12
7.38964e-12
-7.38964e-12
-7.38964e-12
-299.984
-299.984
-0.0155988
-0.0155988
-4.07123e-07
-4.07123e-07
-8.12861e-12
-8.12861e-12
0
0
0
0
0
0
0
0
7.38964e-12
7.38964e-12
-7.38964e-12
-7.38964e-12
-299.984
-0.0155988
-4.07123e-07
-8.12861e-12
0
0
0
0
7.38964e-12
-7.38964e-12
-299.984
-0.0155988
-4.07123e-07
-8.12861e-12
0
0
0
0
7.38964e-12
-7.38964e-12
)
;
    }
    inlet
    {
        type            calculated;
        value           uniform -599.938;
    }
    outlet
    {
        type            calculated;
        value           uniform -2.95586e-11;
    }
}


// ************************************************************************* //
