/*--------------------------------*- C++ -*----------------------------------*\
| =========                 |                                                 |
| \\      /  F ield         | OpenFOAM: The Open Source CFD Toolbox           |
|  \\    /   O peration     | Version:  4.0                                   |
|   \\  /    A nd           | Web:      www.OpenFOAM.org                      |
|    \\/     M anipulation  |                                                 |
\*---------------------------------------------------------------------------*/
FoamFile
{
    version     2.0;
    format      ascii;
    class       volScalarField;
    location    "0.6";
    object      gradTx;
}
// * * * * * * * * * * * * * * * * * * * * * * * * * * * * * * * * * * * * * //

dimensions      [0 -1 0 1 0 0 0];

internalField   nonuniform List<scalar> 
60
(
-2.89901e-12
7.50333e-12
1.05729e-11
-2.72848e-12
7.67386e-12
1.05729e-11
3.75167e-12
9.37916e-12
5.28644e-12
3.75167e-12
9.37916e-12
5.28644e-12
5.11591e-13
2.21689e-12
1.36424e-12
5.11591e-13
2.21689e-12
1.36424e-12
5.11591e-13
0
-5.11591e-13
5.11591e-13
1.36424e-12
6.82121e-13
5.11591e-13
-3.41061e-13
-1.02318e-12
5.11591e-13
-3.41061e-13
-1.02318e-12
5.11591e-13
0
-5.11591e-13
5.11591e-13
0
-5.11591e-13
5.11591e-13
-8.52651e-13
-1.36424e-12
5.11591e-13
-8.52651e-13
-1.36424e-12
-6.82121e-13
-8.52651e-13
-1.7053e-13
-6.82121e-13
-8.52651e-13
-1.7053e-13
5.11591e-13
1.36424e-12
6.82121e-13
5.11591e-13
-5.11591e-13
-1.19371e-12
3.41061e-13
1.02318e-12
5.11591e-13
3.41061e-13
1.02318e-12
5.11591e-13
)
;

boundaryField
{
    walls
    {
        type            calculated;
        value           nonuniform List<scalar> 
100
(
-2.72848e-12
3.75167e-12
5.11591e-13
5.11591e-13
5.11591e-13
5.11591e-13
5.11591e-13
-6.82121e-13
5.11591e-13
3.41061e-13
7.67386e-12
9.37916e-12
2.21689e-12
1.36424e-12
-3.41061e-13
0
-8.52651e-13
-8.52651e-13
-5.11591e-13
1.02318e-12
1.05729e-11
5.28644e-12
1.36424e-12
6.82121e-13
-1.02318e-12
-5.11591e-13
-1.36424e-12
-1.7053e-13
-1.19371e-12
5.11591e-13
0
0
0
0
0
0
0
0
0
0
0
0
0
0
0
0
0
0
0
0
0
0
0
0
0
0
0
0
0
0
0
0
0
0
0
0
0
0
0
0
-2.89901e-12
3.75167e-12
5.11591e-13
5.11591e-13
5.11591e-13
5.11591e-13
5.11591e-13
-6.82121e-13
5.11591e-13
3.41061e-13
7.50333e-12
9.37916e-12
2.21689e-12
0
-3.41061e-13
0
-8.52651e-13
-8.52651e-13
1.36424e-12
1.02318e-12
1.05729e-11
5.28644e-12
1.36424e-12
-5.11591e-13
-1.02318e-12
-5.11591e-13
-1.36424e-12
-1.7053e-13
6.82121e-13
5.11591e-13
)
;
    }
    inlet
    {
        type            calculated;
        value           nonuniform List<scalar> 6(-2.89901e-12 -2.72848e-12 7.50333e-12 7.67386e-12 1.05729e-11 1.05729e-11);
    }
    outlet
    {
        type            calculated;
        value           nonuniform List<scalar> 6(3.41061e-13 3.41061e-13 1.02318e-12 1.02318e-12 5.11591e-13 5.11591e-13);
    }
}


// ************************************************************************* //
