/*--------------------------------*- C++ -*----------------------------------*\
| =========                 |                                                 |
| \\      /  F ield         | OpenFOAM: The Open Source CFD Toolbox           |
|  \\    /   O peration     | Version:  4.0                                   |
|   \\  /    A nd           | Web:      www.OpenFOAM.org                      |
|    \\/     M anipulation  |                                                 |
\*---------------------------------------------------------------------------*/
FoamFile
{
    version     2.0;
    format      ascii;
    class       volScalarField;
    location    "1.7";
    object      gradTz;
}
// * * * * * * * * * * * * * * * * * * * * * * * * * * * * * * * * * * * * * //

dimensions      [0 -1 0 1 0 0 0];

internalField   nonuniform List<scalar> 
40
(
-299.98
-299.98
-299.98
-299.98
-0.0203979
-0.0203979
-0.0203979
-0.0203979
-6.95558e-07
-6.95558e-07
-6.95558e-07
-6.95558e-07
-1.78488e-11
-1.78488e-11
-1.78488e-11
-1.78488e-11
0
0
0
0
0
0
0
0
0
0
0
0
0
0
0
0
9.66338e-12
9.66338e-12
9.66338e-12
9.66338e-12
-9.66338e-12
-9.66338e-12
-9.66338e-12
-9.66338e-12
)
;

boundaryField
{
    walls
    {
        type            calculated;
        value           nonuniform List<scalar> 
80
(
-299.98
-0.0203979
-6.95558e-07
-1.78488e-11
0
0
0
0
9.66338e-12
-9.66338e-12
-299.98
-0.0203979
-6.95558e-07
-1.78488e-11
0
0
0
0
9.66338e-12
-9.66338e-12
-299.98
-299.98
-0.0203979
-0.0203979
-6.95558e-07
-6.95558e-07
-1.78488e-11
-1.78488e-11
0
0
0
0
0
0
0
0
9.66338e-12
9.66338e-12
-9.66338e-12
-9.66338e-12
-299.98
-299.98
-0.0203979
-0.0203979
-6.95558e-07
-6.95558e-07
-1.78488e-11
-1.78488e-11
0
0
0
0
0
0
0
0
9.66338e-12
9.66338e-12
-9.66338e-12
-9.66338e-12
-299.98
-0.0203979
-6.95558e-07
-1.78488e-11
0
0
0
0
9.66338e-12
-9.66338e-12
-299.98
-0.0203979
-6.95558e-07
-1.78488e-11
0
0
0
0
9.66338e-12
-9.66338e-12
)
;
    }
    inlet
    {
        type            calculated;
        value           uniform -599.918;
    }
    outlet
    {
        type            calculated;
        value           uniform -3.86535e-11;
    }
}


// ************************************************************************* //
