/*--------------------------------*- C++ -*----------------------------------*\
| =========                 |                                                 |
| \\      /  F ield         | OpenFOAM: The Open Source CFD Toolbox           |
|  \\    /   O peration     | Version:  4.0                                   |
|   \\  /    A nd           | Web:      www.OpenFOAM.org                      |
|    \\/     M anipulation  |                                                 |
\*---------------------------------------------------------------------------*/
FoamFile
{
    version     2.0;
    format      ascii;
    class       volScalarField;
    location    "0.1";
    object      gradTz;
}
// * * * * * * * * * * * * * * * * * * * * * * * * * * * * * * * * * * * * * //

dimensions      [0 -1 0 1 0 0 0];

internalField   nonuniform List<scalar> 
40
(
-299.999
-299.999
-299.999
-299.999
-0.00119999
-0.00119999
-0.00119999
-0.00119999
-2.52004e-09
-2.52004e-09
-2.52004e-09
-2.52004e-09
0
0
0
0
0
0
0
0
0
0
0
0
0
0
0
0
0
0
0
0
5.68434e-13
5.68434e-13
5.68434e-13
5.68434e-13
-5.68434e-13
-5.68434e-13
-5.68434e-13
-5.68434e-13
)
;

boundaryField
{
    walls
    {
        type            calculated;
        value           nonuniform List<scalar> 
80
(
-299.999
-0.00119999
-2.52004e-09
0
0
0
0
0
5.68434e-13
-5.68434e-13
-299.999
-0.00119999
-2.52004e-09
0
0
0
0
0
5.68434e-13
-5.68434e-13
-299.999
-299.999
-0.00119999
-0.00119999
-2.52004e-09
-2.52004e-09
0
0
0
0
0
0
0
0
0
0
5.68434e-13
5.68434e-13
-5.68434e-13
-5.68434e-13
-299.999
-299.999
-0.00119999
-0.00119999
-2.52004e-09
-2.52004e-09
0
0
0
0
0
0
0
0
0
0
5.68434e-13
5.68434e-13
-5.68434e-13
-5.68434e-13
-299.999
-0.00119999
-2.52004e-09
0
0
0
0
0
5.68434e-13
-5.68434e-13
-299.999
-0.00119999
-2.52004e-09
0
0
0
0
0
5.68434e-13
-5.68434e-13
)
;
    }
    inlet
    {
        type            calculated;
        value           uniform -599.995;
    }
    outlet
    {
        type            calculated;
        value           uniform -2.27374e-12;
    }
}


// ************************************************************************* //
