/*--------------------------------*- C++ -*----------------------------------*\
| =========                 |                                                 |
| \\      /  F ield         | OpenFOAM: The Open Source CFD Toolbox           |
|  \\    /   O peration     | Version:  4.0                                   |
|   \\  /    A nd           | Web:      www.OpenFOAM.org                      |
|    \\/     M anipulation  |                                                 |
\*---------------------------------------------------------------------------*/
FoamFile
{
    version     2.0;
    format      ascii;
    class       volScalarField;
    location    "2.6";
    object      gradTx;
}
// * * * * * * * * * * * * * * * * * * * * * * * * * * * * * * * * * * * * * //

dimensions      [0 -1 0 1 0 0 0];

internalField   nonuniform List<scalar> 
60
(
-1.80762e-11
3.29123e-11
5.0818e-11
-1.63709e-11
3.46176e-11
5.0818e-11
1.94404e-11
4.16094e-11
2.21689e-11
1.94404e-11
4.16094e-11
2.21689e-11
9.54969e-12
2.33626e-11
1.36424e-11
9.54969e-12
2.33626e-11
1.36424e-11
5.11591e-13
0
-5.11591e-13
5.11591e-13
1.36424e-12
6.82121e-13
5.11591e-13
-3.41061e-13
-1.02318e-12
5.11591e-13
-3.41061e-13
-1.02318e-12
5.11591e-13
0
-5.11591e-13
5.11591e-13
0
-5.11591e-13
5.11591e-13
-8.52651e-13
-1.36424e-12
5.11591e-13
-8.52651e-13
-1.36424e-12
-6.82121e-13
-8.52651e-13
-1.7053e-13
-6.82121e-13
-8.52651e-13
-1.7053e-13
5.11591e-13
1.36424e-12
6.82121e-13
5.11591e-13
-5.11591e-13
-1.19371e-12
3.41061e-13
1.02318e-12
5.11591e-13
3.41061e-13
1.02318e-12
5.11591e-13
)
;

boundaryField
{
    walls
    {
        type            calculated;
        value           nonuniform List<scalar> 
100
(
-1.63709e-11
1.94404e-11
9.54969e-12
5.11591e-13
5.11591e-13
5.11591e-13
5.11591e-13
-6.82121e-13
5.11591e-13
3.41061e-13
3.46176e-11
4.16094e-11
2.33626e-11
1.36424e-12
-3.41061e-13
0
-8.52651e-13
-8.52651e-13
-5.11591e-13
1.02318e-12
5.0818e-11
2.21689e-11
1.36424e-11
6.82121e-13
-1.02318e-12
-5.11591e-13
-1.36424e-12
-1.7053e-13
-1.19371e-12
5.11591e-13
0
0
0
0
0
0
0
0
0
0
0
0
0
0
0
0
0
0
0
0
0
0
0
0
0
0
0
0
0
0
0
0
0
0
0
0
0
0
0
0
-1.80762e-11
1.94404e-11
9.54969e-12
5.11591e-13
5.11591e-13
5.11591e-13
5.11591e-13
-6.82121e-13
5.11591e-13
3.41061e-13
3.29123e-11
4.16094e-11
2.33626e-11
0
-3.41061e-13
0
-8.52651e-13
-8.52651e-13
1.36424e-12
1.02318e-12
5.0818e-11
2.21689e-11
1.36424e-11
-5.11591e-13
-1.02318e-12
-5.11591e-13
-1.36424e-12
-1.7053e-13
6.82121e-13
5.11591e-13
)
;
    }
    inlet
    {
        type            calculated;
        value           nonuniform List<scalar> 6(-1.80762e-11 -1.63709e-11 3.29123e-11 3.46176e-11 5.0818e-11 5.0818e-11);
    }
    outlet
    {
        type            calculated;
        value           nonuniform List<scalar> 6(3.41061e-13 3.41061e-13 1.02318e-12 1.02318e-12 5.11591e-13 5.11591e-13);
    }
}


// ************************************************************************* //
