/*--------------------------------*- C++ -*----------------------------------*\
| =========                 |                                                 |
| \\      /  F ield         | OpenFOAM: The Open Source CFD Toolbox           |
|  \\    /   O peration     | Version:  4.0                                   |
|   \\  /    A nd           | Web:      www.OpenFOAM.org                      |
|    \\/     M anipulation  |                                                 |
\*---------------------------------------------------------------------------*/
FoamFile
{
    version     2.0;
    format      ascii;
    class       volScalarField;
    location    "1.2";
    object      gradTz;
}
// * * * * * * * * * * * * * * * * * * * * * * * * * * * * * * * * * * * * * //

dimensions      [0 -1 0 1 0 0 0];

internalField   nonuniform List<scalar> 
60
(
-299.986
-299.986
-299.986
-299.986
-299.986
-299.986
-0.014399
-0.014399
-0.014399
-0.014399
-0.014399
-0.014399
-3.47005e-07
-3.47008e-07
-3.47012e-07
-3.47005e-07
-3.47008e-07
-3.47011e-07
-6.82121e-13
-1.49214e-12
-3.9222e-12
-6.82121e-13
-1.49214e-12
-3.96483e-12
0
0
-4.26326e-14
0
0
-4.68958e-13
1.27898e-13
1.27898e-13
4.26326e-14
1.27898e-13
1.27898e-13
4.26326e-14
4.26326e-13
4.26326e-14
1.27898e-13
4.26326e-13
4.26326e-14
1.27898e-13
-8.52651e-14
-1.7053e-13
5.54223e-13
-1.7053e-13
-1.7053e-13
-4.26326e-14
-3.41061e-13
8.52651e-14
2.98428e-13
-2.55795e-13
8.52651e-14
2.55795e-13
7.24754e-13
3.83693e-13
0
7.24754e-13
3.83693e-13
6.39488e-13
)
;

boundaryField
{
    walls
    {
        type            calculated;
        value           nonuniform List<scalar> 
100
(
-299.986
-0.014399
-3.47005e-07
-6.82121e-13
0
1.27898e-13
4.26326e-13
-1.7053e-13
-2.55795e-13
7.24754e-13
-299.986
-0.014399
-3.47008e-07
-1.49214e-12
0
1.27898e-13
4.26326e-14
-1.7053e-13
8.52651e-14
3.83693e-13
-299.986
-0.014399
-3.47011e-07
-3.96483e-12
-4.68958e-13
4.26326e-14
1.27898e-13
-4.26326e-14
2.55795e-13
6.39488e-13
-299.986
-299.986
-0.014399
-0.014399
-3.47005e-07
-3.47005e-07
-6.82121e-13
-6.82121e-13
0
0
1.27898e-13
1.27898e-13
4.26326e-13
4.26326e-13
-8.52651e-14
-1.7053e-13
-3.41061e-13
-2.55795e-13
7.24754e-13
7.24754e-13
-299.986
-299.986
-0.014399
-0.014399
-3.47012e-07
-3.47011e-07
-3.9222e-12
-3.96483e-12
-4.26326e-14
-4.68958e-13
4.26326e-14
4.26326e-14
1.27898e-13
1.27898e-13
5.54223e-13
-4.26326e-14
2.98428e-13
2.55795e-13
0
6.39488e-13
-299.986
-0.014399
-3.47005e-07
-6.82121e-13
0
1.27898e-13
4.26326e-13
-8.52651e-14
-3.41061e-13
7.24754e-13
-299.986
-0.014399
-3.47008e-07
-1.49214e-12
0
1.27898e-13
4.26326e-14
-1.7053e-13
8.52651e-14
3.83693e-13
-299.986
-0.014399
-3.47012e-07
-3.9222e-12
-4.26326e-14
4.26326e-14
1.27898e-13
5.54223e-13
2.98428e-13
0
)
;
    }
    inlet
    {
        type            calculated;
        value           nonuniform List<scalar> 6(-599.942 -599.942 -599.942 -599.942 -599.942 -599.942);
    }
    outlet
    {
        type            calculated;
        value           nonuniform List<scalar> 6(1.25056e-12 1.25056e-12 6.82121e-13 6.82121e-13 0 0);
    }
}


// ************************************************************************* //
