/*--------------------------------*- C++ -*----------------------------------*\
| =========                 |                                                 |
| \\      /  F ield         | OpenFOAM: The Open Source CFD Toolbox           |
|  \\    /   O peration     | Version:  4.0                                   |
|   \\  /    A nd           | Web:      www.OpenFOAM.org                      |
|    \\/     M anipulation  |                                                 |
\*---------------------------------------------------------------------------*/
FoamFile
{
    version     2.0;
    format      ascii;
    class       volScalarField;
    location    "3";
    object      gradTz;
}
// * * * * * * * * * * * * * * * * * * * * * * * * * * * * * * * * * * * * * //

dimensions      [0 -1 0 1 0 0 0];

internalField   nonuniform List<scalar> 
40
(
-299.964
-299.964
-299.964
-299.964
-0.0359935
-0.0359935
-0.0359935
-0.0359935
-2.16316e-06
-2.16316e-06
-2.16316e-06
-2.16316e-06
-8.99263e-11
-8.99263e-11
-8.99263e-11
-8.99263e-11
0
0
0
0
0
0
0
0
0
0
0
0
0
0
0
0
1.7053e-11
1.7053e-11
1.7053e-11
1.7053e-11
-1.7053e-11
-1.7053e-11
-1.7053e-11
-1.7053e-11
)
;

boundaryField
{
    walls
    {
        type            calculated;
        value           nonuniform List<scalar> 
80
(
-299.964
-0.0359935
-2.16316e-06
-8.99263e-11
0
0
0
0
1.7053e-11
-1.7053e-11
-299.964
-0.0359935
-2.16316e-06
-8.99263e-11
0
0
0
0
1.7053e-11
-1.7053e-11
-299.964
-299.964
-0.0359935
-0.0359935
-2.16316e-06
-2.16316e-06
-8.99263e-11
-8.99263e-11
0
0
0
0
0
0
0
0
1.7053e-11
1.7053e-11
-1.7053e-11
-1.7053e-11
-299.964
-299.964
-0.0359935
-0.0359935
-2.16316e-06
-2.16316e-06
-8.99263e-11
-8.99263e-11
0
0
0
0
0
0
0
0
1.7053e-11
1.7053e-11
-1.7053e-11
-1.7053e-11
-299.964
-0.0359935
-2.16316e-06
-8.99263e-11
0
0
0
0
1.7053e-11
-1.7053e-11
-299.964
-0.0359935
-2.16316e-06
-8.99263e-11
0
0
0
0
1.7053e-11
-1.7053e-11
)
;
    }
    inlet
    {
        type            calculated;
        value           uniform -599.856;
    }
    outlet
    {
        type            calculated;
        value           uniform -6.82121e-11;
    }
}


// ************************************************************************* //
