/*--------------------------------*- C++ -*----------------------------------*\
| =========                 |                                                 |
| \\      /  F ield         | OpenFOAM: The Open Source CFD Toolbox           |
|  \\    /   O peration     | Version:  4.0                                   |
|   \\  /    A nd           | Web:      www.OpenFOAM.org                      |
|    \\/     M anipulation  |                                                 |
\*---------------------------------------------------------------------------*/
FoamFile
{
    version     2.0;
    format      ascii;
    class       volScalarField;
    location    "0.4";
    object      gradTz;
}
// * * * * * * * * * * * * * * * * * * * * * * * * * * * * * * * * * * * * * //

dimensions      [0 -1 0 1 0 0 0];

internalField   nonuniform List<scalar> 
40
(
-299.995
-299.995
-299.995
-299.995
-0.00479988
-0.00479988
-0.00479988
-0.00479988
-3.88785e-08
-3.88785e-08
-3.88785e-08
-3.88785e-08
0
0
0
0
0
0
0
0
0
0
0
0
0
0
0
0
0
0
0
0
2.27374e-12
2.27374e-12
2.27374e-12
2.27374e-12
-2.27374e-12
-2.27374e-12
-2.27374e-12
-2.27374e-12
)
;

boundaryField
{
    walls
    {
        type            calculated;
        value           nonuniform List<scalar> 
80
(
-299.995
-0.00479988
-3.88785e-08
0
0
0
0
0
2.27374e-12
-2.27374e-12
-299.995
-0.00479988
-3.88785e-08
0
0
0
0
0
2.27374e-12
-2.27374e-12
-299.995
-299.995
-0.00479988
-0.00479988
-3.88785e-08
-3.88785e-08
0
0
0
0
0
0
0
0
0
0
2.27374e-12
2.27374e-12
-2.27374e-12
-2.27374e-12
-299.995
-299.995
-0.00479988
-0.00479988
-3.88785e-08
-3.88785e-08
0
0
0
0
0
0
0
0
0
0
2.27374e-12
2.27374e-12
-2.27374e-12
-2.27374e-12
-299.995
-0.00479988
-3.88785e-08
0
0
0
0
0
2.27374e-12
-2.27374e-12
-299.995
-0.00479988
-3.88785e-08
0
0
0
0
0
2.27374e-12
-2.27374e-12
)
;
    }
    inlet
    {
        type            calculated;
        value           uniform -599.981;
    }
    outlet
    {
        type            calculated;
        value           uniform -9.09495e-12;
    }
}


// ************************************************************************* //
