/*--------------------------------*- C++ -*----------------------------------*\
| =========                 |                                                 |
| \\      /  F ield         | OpenFOAM: The Open Source CFD Toolbox           |
|  \\    /   O peration     | Version:  4.0                                   |
|   \\  /    A nd           | Web:      www.OpenFOAM.org                      |
|    \\/     M anipulation  |                                                 |
\*---------------------------------------------------------------------------*/
FoamFile
{
    version     2.0;
    format      ascii;
    class       volScalarField;
    location    "2";
    object      gradTz;
}
// * * * * * * * * * * * * * * * * * * * * * * * * * * * * * * * * * * * * * //

dimensions      [0 -1 0 1 0 0 0];

internalField   nonuniform List<scalar> 
40
(
-299.976
-299.976
-299.976
-299.976
-0.0239971
-0.0239971
-0.0239971
-0.0239971
-9.62268e-07
-9.62268e-07
-9.62268e-07
-9.62268e-07
-2.80238e-11
-2.80238e-11
-2.80238e-11
-2.80238e-11
0
0
0
0
0
0
0
0
0
0
0
0
0
0
0
0
1.13687e-11
1.13687e-11
1.13687e-11
1.13687e-11
-1.13687e-11
-1.13687e-11
-1.13687e-11
-1.13687e-11
)
;

boundaryField
{
    walls
    {
        type            calculated;
        value           nonuniform List<scalar> 
80
(
-299.976
-0.0239971
-9.62268e-07
-2.80238e-11
0
0
0
0
1.13687e-11
-1.13687e-11
-299.976
-0.0239971
-9.62268e-07
-2.80238e-11
0
0
0
0
1.13687e-11
-1.13687e-11
-299.976
-299.976
-0.0239971
-0.0239971
-9.62268e-07
-9.62268e-07
-2.80238e-11
-2.80238e-11
0
0
0
0
0
0
0
0
1.13687e-11
1.13687e-11
-1.13687e-11
-1.13687e-11
-299.976
-299.976
-0.0239971
-0.0239971
-9.62268e-07
-9.62268e-07
-2.80238e-11
-2.80238e-11
0
0
0
0
0
0
0
0
1.13687e-11
1.13687e-11
-1.13687e-11
-1.13687e-11
-299.976
-0.0239971
-9.62268e-07
-2.80238e-11
0
0
0
0
1.13687e-11
-1.13687e-11
-299.976
-0.0239971
-9.62268e-07
-2.80238e-11
0
0
0
0
1.13687e-11
-1.13687e-11
)
;
    }
    inlet
    {
        type            calculated;
        value           uniform -599.904;
    }
    outlet
    {
        type            calculated;
        value           uniform -4.54747e-11;
    }
}


// ************************************************************************* //
