/*--------------------------------*- C++ -*----------------------------------*\
| =========                 |                                                 |
| \\      /  F ield         | OpenFOAM: The Open Source CFD Toolbox           |
|  \\    /   O peration     | Version:  4.0                                   |
|   \\  /    A nd           | Web:      www.OpenFOAM.org                      |
|    \\/     M anipulation  |                                                 |
\*---------------------------------------------------------------------------*/
FoamFile
{
    version     2.0;
    format      ascii;
    class       volScalarField;
    location    "0.3";
    object      gradTz;
}
// * * * * * * * * * * * * * * * * * * * * * * * * * * * * * * * * * * * * * //

dimensions      [0 -1 0 1 0 0 0];

internalField   nonuniform List<scalar> 
40
(
-299.996
-299.996
-299.996
-299.996
-0.00359993
-0.00359993
-0.00359993
-0.00359993
-2.19591e-08
-2.19591e-08
-2.19591e-08
-2.19591e-08
0
0
0
0
0
0
0
0
0
0
0
0
0
0
0
0
0
0
0
0
1.7053e-12
1.7053e-12
1.7053e-12
1.7053e-12
-1.7053e-12
-1.7053e-12
-1.7053e-12
-1.7053e-12
)
;

boundaryField
{
    walls
    {
        type            calculated;
        value           nonuniform List<scalar> 
80
(
-299.996
-0.00359993
-2.19591e-08
0
0
0
0
0
1.7053e-12
-1.7053e-12
-299.996
-0.00359993
-2.19591e-08
0
0
0
0
0
1.7053e-12
-1.7053e-12
-299.996
-299.996
-0.00359993
-0.00359993
-2.19591e-08
-2.19591e-08
0
0
0
0
0
0
0
0
0
0
1.7053e-12
1.7053e-12
-1.7053e-12
-1.7053e-12
-299.996
-299.996
-0.00359993
-0.00359993
-2.19591e-08
-2.19591e-08
0
0
0
0
0
0
0
0
0
0
1.7053e-12
1.7053e-12
-1.7053e-12
-1.7053e-12
-299.996
-0.00359993
-2.19591e-08
0
0
0
0
0
1.7053e-12
-1.7053e-12
-299.996
-0.00359993
-2.19591e-08
0
0
0
0
0
1.7053e-12
-1.7053e-12
)
;
    }
    inlet
    {
        type            calculated;
        value           uniform -599.986;
    }
    outlet
    {
        type            calculated;
        value           uniform -6.82121e-12;
    }
}


// ************************************************************************* //
