/*--------------------------------*- C++ -*----------------------------------*\
| =========                 |                                                 |
| \\      /  F ield         | OpenFOAM: The Open Source CFD Toolbox           |
|  \\    /   O peration     | Version:  4.0                                   |
|   \\  /    A nd           | Web:      www.OpenFOAM.org                      |
|    \\/     M anipulation  |                                                 |
\*---------------------------------------------------------------------------*/
FoamFile
{
    version     2.0;
    format      ascii;
    class       volScalarField;
    location    "1.7";
    object      gradTx;
}
// * * * * * * * * * * * * * * * * * * * * * * * * * * * * * * * * * * * * * //

dimensions      [0 -1 0 1 0 0 0];

internalField   nonuniform List<scalar> 
60
(
-1.19371e-11
2.13163e-11
3.34239e-11
-1.07434e-11
2.26805e-11
3.34239e-11
1.22782e-11
2.72848e-11
1.48361e-11
1.22782e-11
2.72848e-11
1.48361e-11
4.94538e-12
1.4154e-11
9.0381e-12
4.94538e-12
1.4154e-11
9.0381e-12
5.11591e-13
0
-5.11591e-13
5.11591e-13
1.36424e-12
6.82121e-13
5.11591e-13
-3.41061e-13
-1.02318e-12
5.11591e-13
-3.41061e-13
-1.02318e-12
5.11591e-13
0
-5.11591e-13
5.11591e-13
0
-5.11591e-13
5.11591e-13
-8.52651e-13
-1.36424e-12
5.11591e-13
-8.52651e-13
-1.36424e-12
-6.82121e-13
-8.52651e-13
-1.7053e-13
-6.82121e-13
-8.52651e-13
-1.7053e-13
5.11591e-13
1.36424e-12
6.82121e-13
5.11591e-13
-5.11591e-13
-1.19371e-12
3.41061e-13
1.02318e-12
5.11591e-13
3.41061e-13
1.02318e-12
5.11591e-13
)
;

boundaryField
{
    walls
    {
        type            calculated;
        value           nonuniform List<scalar> 
100
(
-1.07434e-11
1.22782e-11
4.94538e-12
5.11591e-13
5.11591e-13
5.11591e-13
5.11591e-13
-6.82121e-13
5.11591e-13
3.41061e-13
2.26805e-11
2.72848e-11
1.4154e-11
1.36424e-12
-3.41061e-13
0
-8.52651e-13
-8.52651e-13
-5.11591e-13
1.02318e-12
3.34239e-11
1.48361e-11
9.0381e-12
6.82121e-13
-1.02318e-12
-5.11591e-13
-1.36424e-12
-1.7053e-13
-1.19371e-12
5.11591e-13
0
0
0
0
0
0
0
0
0
0
0
0
0
0
0
0
0
0
0
0
0
0
0
0
0
0
0
0
0
0
0
0
0
0
0
0
0
0
0
0
-1.19371e-11
1.22782e-11
4.94538e-12
5.11591e-13
5.11591e-13
5.11591e-13
5.11591e-13
-6.82121e-13
5.11591e-13
3.41061e-13
2.13163e-11
2.72848e-11
1.4154e-11
0
-3.41061e-13
0
-8.52651e-13
-8.52651e-13
1.36424e-12
1.02318e-12
3.34239e-11
1.48361e-11
9.0381e-12
-5.11591e-13
-1.02318e-12
-5.11591e-13
-1.36424e-12
-1.7053e-13
6.82121e-13
5.11591e-13
)
;
    }
    inlet
    {
        type            calculated;
        value           nonuniform List<scalar> 6(-1.19371e-11 -1.07434e-11 2.13163e-11 2.26805e-11 3.34239e-11 3.34239e-11);
    }
    outlet
    {
        type            calculated;
        value           nonuniform List<scalar> 6(3.41061e-13 3.41061e-13 1.02318e-12 1.02318e-12 5.11591e-13 5.11591e-13);
    }
}


// ************************************************************************* //
