/*--------------------------------*- C++ -*----------------------------------*\
| =========                 |                                                 |
| \\      /  F ield         | OpenFOAM: The Open Source CFD Toolbox           |
|  \\    /   O peration     | Version:  4.0                                   |
|   \\  /    A nd           | Web:      www.OpenFOAM.org                      |
|    \\/     M anipulation  |                                                 |
\*---------------------------------------------------------------------------*/
FoamFile
{
    version     2.0;
    format      ascii;
    class       volScalarField;
    location    "2.3";
    object      gradTz;
}
// * * * * * * * * * * * * * * * * * * * * * * * * * * * * * * * * * * * * * //

dimensions      [0 -1 0 1 0 0 0];

internalField   nonuniform List<scalar> 
40
(
-299.972
-299.972
-299.972
-299.972
-0.0275962
-0.0275962
-0.0275962
-0.0275962
-1.27216e-06
-1.27216e-06
-1.27216e-06
-1.27216e-06
-4.14957e-11
-4.14957e-11
-4.14957e-11
-4.14957e-11
0
0
0
0
0
0
0
0
0
0
0
0
0
0
0
0
1.3074e-11
1.3074e-11
1.3074e-11
1.3074e-11
-1.3074e-11
-1.3074e-11
-1.3074e-11
-1.3074e-11
)
;

boundaryField
{
    walls
    {
        type            calculated;
        value           nonuniform List<scalar> 
80
(
-299.972
-0.0275962
-1.27216e-06
-4.14957e-11
0
0
0
0
1.3074e-11
-1.3074e-11
-299.972
-0.0275962
-1.27216e-06
-4.14957e-11
0
0
0
0
1.3074e-11
-1.3074e-11
-299.972
-299.972
-0.0275962
-0.0275962
-1.27216e-06
-1.27216e-06
-4.14957e-11
-4.14957e-11
0
0
0
0
0
0
0
0
1.3074e-11
1.3074e-11
-1.3074e-11
-1.3074e-11
-299.972
-299.972
-0.0275962
-0.0275962
-1.27216e-06
-1.27216e-06
-4.14957e-11
-4.14957e-11
0
0
0
0
0
0
0
0
1.3074e-11
1.3074e-11
-1.3074e-11
-1.3074e-11
-299.972
-0.0275962
-1.27216e-06
-4.14957e-11
0
0
0
0
1.3074e-11
-1.3074e-11
-299.972
-0.0275962
-1.27216e-06
-4.14957e-11
0
0
0
0
1.3074e-11
-1.3074e-11
)
;
    }
    inlet
    {
        type            calculated;
        value           uniform -599.89;
    }
    outlet
    {
        type            calculated;
        value           uniform -5.22959e-11;
    }
}


// ************************************************************************* //
