/*--------------------------------*- C++ -*----------------------------------*\
| =========                 |                                                 |
| \\      /  F ield         | OpenFOAM: The Open Source CFD Toolbox           |
|  \\    /   O peration     | Version:  4.0                                   |
|   \\  /    A nd           | Web:      www.OpenFOAM.org                      |
|    \\/     M anipulation  |                                                 |
\*---------------------------------------------------------------------------*/
FoamFile
{
    version     2.0;
    format      ascii;
    class       volScalarField;
    location    "2.2";
    object      gradTz;
}
// * * * * * * * * * * * * * * * * * * * * * * * * * * * * * * * * * * * * * //

dimensions      [0 -1 0 1 0 0 0];

internalField   nonuniform List<scalar> 
60
(
-299.974
-299.974
-299.974
-299.974
-299.974
-299.974
-0.0263965
-0.0263965
-0.0263965
-0.0263965
-0.0263965
-0.0263965
-1.16406e-06
-1.16406e-06
-1.16407e-06
-1.16406e-06
-1.16406e-06
-1.16407e-06
-2.5409e-11
-2.78817e-11
-3.20171e-11
-2.5409e-11
-2.78817e-11
-3.20597e-11
0
0
-4.26326e-14
0
0
-4.68958e-13
1.27898e-13
1.27898e-13
4.26326e-14
1.27898e-13
1.27898e-13
4.26326e-14
4.26326e-13
4.26326e-14
1.27898e-13
4.26326e-13
4.26326e-14
1.27898e-13
-8.52651e-14
-1.7053e-13
5.54223e-13
-1.7053e-13
-1.7053e-13
-4.26326e-14
-3.41061e-13
8.52651e-14
2.98428e-13
-2.55795e-13
8.52651e-14
2.55795e-13
7.24754e-13
3.83693e-13
0
7.24754e-13
3.83693e-13
6.39488e-13
)
;

boundaryField
{
    walls
    {
        type            calculated;
        value           nonuniform List<scalar> 
100
(
-299.974
-0.0263965
-1.16406e-06
-2.5409e-11
0
1.27898e-13
4.26326e-13
-1.7053e-13
-2.55795e-13
7.24754e-13
-299.974
-0.0263965
-1.16406e-06
-2.78817e-11
0
1.27898e-13
4.26326e-14
-1.7053e-13
8.52651e-14
3.83693e-13
-299.974
-0.0263965
-1.16407e-06
-3.20597e-11
-4.68958e-13
4.26326e-14
1.27898e-13
-4.26326e-14
2.55795e-13
6.39488e-13
-299.974
-299.974
-0.0263965
-0.0263965
-1.16406e-06
-1.16406e-06
-2.5409e-11
-2.5409e-11
0
0
1.27898e-13
1.27898e-13
4.26326e-13
4.26326e-13
-8.52651e-14
-1.7053e-13
-3.41061e-13
-2.55795e-13
7.24754e-13
7.24754e-13
-299.974
-299.974
-0.0263965
-0.0263965
-1.16407e-06
-1.16407e-06
-3.20171e-11
-3.20597e-11
-4.26326e-14
-4.68958e-13
4.26326e-14
4.26326e-14
1.27898e-13
1.27898e-13
5.54223e-13
-4.26326e-14
2.98428e-13
2.55795e-13
0
6.39488e-13
-299.974
-0.0263965
-1.16406e-06
-2.5409e-11
0
1.27898e-13
4.26326e-13
-8.52651e-14
-3.41061e-13
7.24754e-13
-299.974
-0.0263965
-1.16406e-06
-2.78817e-11
0
1.27898e-13
4.26326e-14
-1.7053e-13
8.52651e-14
3.83693e-13
-299.974
-0.0263965
-1.16407e-06
-3.20171e-11
-4.26326e-14
4.26326e-14
1.27898e-13
5.54223e-13
2.98428e-13
0
)
;
    }
    inlet
    {
        type            calculated;
        value           nonuniform List<scalar> 6(-599.894 -599.894 -599.894 -599.894 -599.894 -599.894);
    }
    outlet
    {
        type            calculated;
        value           nonuniform List<scalar> 6(1.25056e-12 1.25056e-12 6.82121e-13 6.82121e-13 0 0);
    }
}


// ************************************************************************* //
