/*--------------------------------*- C++ -*----------------------------------*\
| =========                 |                                                 |
| \\      /  F ield         | OpenFOAM: The Open Source CFD Toolbox           |
|  \\    /   O peration     | Version:  4.0                                   |
|   \\  /    A nd           | Web:      www.OpenFOAM.org                      |
|    \\/     M anipulation  |                                                 |
\*---------------------------------------------------------------------------*/
FoamFile
{
    version     2.0;
    format      ascii;
    class       volScalarField;
    location    "2.2";
    object      gradTx;
}
// * * * * * * * * * * * * * * * * * * * * * * * * * * * * * * * * * * * * * //

dimensions      [0 -1 0 1 0 0 0];

internalField   nonuniform List<scalar> 
60
(
-1.51772e-11
2.76259e-11
4.29736e-11
-1.36424e-11
2.91607e-11
4.29736e-11
1.58593e-11
3.52998e-11
1.92699e-11
1.58593e-11
3.52998e-11
1.92699e-11
7.84439e-12
1.94404e-11
1.15961e-11
7.84439e-12
1.94404e-11
1.15961e-11
5.11591e-13
0
-5.11591e-13
5.11591e-13
1.36424e-12
6.82121e-13
5.11591e-13
-3.41061e-13
-1.02318e-12
5.11591e-13
-3.41061e-13
-1.02318e-12
5.11591e-13
0
-5.11591e-13
5.11591e-13
0
-5.11591e-13
5.11591e-13
-8.52651e-13
-1.36424e-12
5.11591e-13
-8.52651e-13
-1.36424e-12
-6.82121e-13
-8.52651e-13
-1.7053e-13
-6.82121e-13
-8.52651e-13
-1.7053e-13
5.11591e-13
1.36424e-12
6.82121e-13
5.11591e-13
-5.11591e-13
-1.19371e-12
3.41061e-13
1.02318e-12
5.11591e-13
3.41061e-13
1.02318e-12
5.11591e-13
)
;

boundaryField
{
    walls
    {
        type            calculated;
        value           nonuniform List<scalar> 
100
(
-1.36424e-11
1.58593e-11
7.84439e-12
5.11591e-13
5.11591e-13
5.11591e-13
5.11591e-13
-6.82121e-13
5.11591e-13
3.41061e-13
2.91607e-11
3.52998e-11
1.94404e-11
1.36424e-12
-3.41061e-13
0
-8.52651e-13
-8.52651e-13
-5.11591e-13
1.02318e-12
4.29736e-11
1.92699e-11
1.15961e-11
6.82121e-13
-1.02318e-12
-5.11591e-13
-1.36424e-12
-1.7053e-13
-1.19371e-12
5.11591e-13
0
0
0
0
0
0
0
0
0
0
0
0
0
0
0
0
0
0
0
0
0
0
0
0
0
0
0
0
0
0
0
0
0
0
0
0
0
0
0
0
-1.51772e-11
1.58593e-11
7.84439e-12
5.11591e-13
5.11591e-13
5.11591e-13
5.11591e-13
-6.82121e-13
5.11591e-13
3.41061e-13
2.76259e-11
3.52998e-11
1.94404e-11
0
-3.41061e-13
0
-8.52651e-13
-8.52651e-13
1.36424e-12
1.02318e-12
4.29736e-11
1.92699e-11
1.15961e-11
-5.11591e-13
-1.02318e-12
-5.11591e-13
-1.36424e-12
-1.7053e-13
6.82121e-13
5.11591e-13
)
;
    }
    inlet
    {
        type            calculated;
        value           nonuniform List<scalar> 6(-1.51772e-11 -1.36424e-11 2.76259e-11 2.91607e-11 4.29736e-11 4.29736e-11);
    }
    outlet
    {
        type            calculated;
        value           nonuniform List<scalar> 6(3.41061e-13 3.41061e-13 1.02318e-12 1.02318e-12 5.11591e-13 5.11591e-13);
    }
}


// ************************************************************************* //
