# vtk DataFile Version 2.0
outlet
ASCII
DATASET POLYDATA
POINTS 12 float
0 0 10 0.333333 0 10 0.333333 0.5 10 0 0.5
10 0.333333 1 10 0 1 10 0.666667 0 10
0.666667 0.5 10 0.666667 1 10 1 0 10 1
0.5 10 1 1 10 
POLYGONS 6 30
4 0 1 2 3 4 3 2 4 5 4
1 6 7 2 4 2 7 8 4 4
6 9 10 7 4 7 10 11 8 
CELL_DATA 6
FIELD attributes 2
patchID 1 6 float
2 2 2 2 2 2 
T 1 6 float
273 273 273 273 273 273 
POINT_DATA  12
FIELD attributes 1
T 1 12 float
273 273 273 273 273 273 273 273 273 273 273
273 
