# vtk DataFile Version 2.0
outlet
ASCII
DATASET POLYDATA
POINTS 12 float
0 0 10 0.333333 0 10 0.333333 0.5 10 0 0.5
10 0.333333 1 10 0 1 10 0.666667 0 10
0.666667 0.5 10 0.666667 1 10 1 0 10 1
0.5 10 1 1 10 
POLYGONS 6 30
4 0 1 2 3 4 3 2 4 5 4
1 6 7 2 4 2 7 8 4 4
6 9 10 7 4 7 10 11 8 
CELL_DATA 6
FIELD attributes 5
patchID 1 6 float
2 2 2 2 2 2 
gradTy 1 6 float
0 0 0 0 0 0 
gradTx 1 6 float
3.41061e-13 3.41061e-13 1.02318e-12 1.02318e-12 5.11591e-13 5.11591e-13 
T 1 6 float
273 273 273 273 273 273 
gradTz 1 6 float
1.25056e-12 1.25056e-12 6.82121e-13 6.82121e-13 0 0 
POINT_DATA  12
FIELD attributes 4
gradTy 1 12 float
0 0 0 0 0 0 0 0 0 0 0
0 
gradTx 1 12 float
3.41061e-13 6.8212e-13 6.8212e-13 3.41061e-13 6.8212e-13 3.41061e-13 7.67386e-13 7.67386e-13 7.67386e-13 5.11591e-13 5.11591e-13
5.11591e-13 
T 1 12 float
273 273 273 273 273 273 273 273 273 273 273
273 
gradTz 1 12 float
1.25056e-12 9.66341e-13 9.66341e-13 1.25056e-12 9.66341e-13 1.25056e-12 3.41061e-13 3.41061e-13 3.41061e-13 0 0
0 
