/*--------------------------------*- C++ -*----------------------------------*\
| =========                 |                                                 |
| \\      /  F ield         | OpenFOAM: The Open Source CFD Toolbox           |
|  \\    /   O peration     | Version:  4.0                                   |
|   \\  /    A nd           | Web:      www.OpenFOAM.org                      |
|    \\/     M anipulation  |                                                 |
\*---------------------------------------------------------------------------*/
FoamFile
{
    version     2.0;
    format      ascii;
    class       volScalarField;
    location    "2.2";
    object      gradTz;
}
// * * * * * * * * * * * * * * * * * * * * * * * * * * * * * * * * * * * * * //

dimensions      [0 -1 0 1 0 0 0];

internalField   nonuniform List<scalar> 
40
(
-299.974
-299.974
-299.974
-299.974
-0.0263965
-0.0263965
-0.0263965
-0.0263965
-1.16407e-06
-1.16407e-06
-1.16407e-06
-1.16407e-06
-3.67208e-11
-3.67208e-11
-3.67208e-11
-3.67208e-11
0
0
0
0
0
0
0
0
0
0
0
0
0
0
0
0
1.25056e-11
1.25056e-11
1.25056e-11
1.25056e-11
-1.25056e-11
-1.25056e-11
-1.25056e-11
-1.25056e-11
)
;

boundaryField
{
    walls
    {
        type            calculated;
        value           nonuniform List<scalar> 
80
(
-299.974
-0.0263965
-1.16407e-06
-3.67208e-11
0
0
0
0
1.25056e-11
-1.25056e-11
-299.974
-0.0263965
-1.16407e-06
-3.67208e-11
0
0
0
0
1.25056e-11
-1.25056e-11
-299.974
-299.974
-0.0263965
-0.0263965
-1.16407e-06
-1.16407e-06
-3.67208e-11
-3.67208e-11
0
0
0
0
0
0
0
0
1.25056e-11
1.25056e-11
-1.25056e-11
-1.25056e-11
-299.974
-299.974
-0.0263965
-0.0263965
-1.16407e-06
-1.16407e-06
-3.67208e-11
-3.67208e-11
0
0
0
0
0
0
0
0
1.25056e-11
1.25056e-11
-1.25056e-11
-1.25056e-11
-299.974
-0.0263965
-1.16407e-06
-3.67208e-11
0
0
0
0
1.25056e-11
-1.25056e-11
-299.974
-0.0263965
-1.16407e-06
-3.67208e-11
0
0
0
0
1.25056e-11
-1.25056e-11
)
;
    }
    inlet
    {
        type            calculated;
        value           uniform -599.894;
    }
    outlet
    {
        type            calculated;
        value           uniform -5.00222e-11;
    }
}


// ************************************************************************* //
