/*--------------------------------*- C++ -*----------------------------------*\
| =========                 |                                                 |
| \\      /  F ield         | OpenFOAM: The Open Source CFD Toolbox           |
|  \\    /   O peration     | Version:  4.0                                   |
|   \\  /    A nd           | Web:      www.OpenFOAM.org                      |
|    \\/     M anipulation  |                                                 |
\*---------------------------------------------------------------------------*/
FoamFile
{
    version     2.0;
    format      ascii;
    class       volScalarField;
    location    "0.7";
    object      gradTz;
}
// * * * * * * * * * * * * * * * * * * * * * * * * * * * * * * * * * * * * * //

dimensions      [0 -1 0 1 0 0 0];

internalField   nonuniform List<scalar> 
40
(
-299.992
-299.992
-299.992
-299.992
-0.00839964
-0.00839964
-0.00839964
-0.00839964
-1.18433e-07
-1.18433e-07
-1.18433e-07
-1.18433e-07
-1.3074e-12
-1.3074e-12
-1.3074e-12
-1.3074e-12
0
0
0
0
0
0
0
0
0
0
0
0
0
0
0
0
3.97904e-12
3.97904e-12
3.97904e-12
3.97904e-12
-3.97904e-12
-3.97904e-12
-3.97904e-12
-3.97904e-12
)
;

boundaryField
{
    walls
    {
        type            calculated;
        value           nonuniform List<scalar> 
80
(
-299.992
-0.00839964
-1.18433e-07
-1.3074e-12
0
0
0
0
3.97904e-12
-3.97904e-12
-299.992
-0.00839964
-1.18433e-07
-1.3074e-12
0
0
0
0
3.97904e-12
-3.97904e-12
-299.992
-299.992
-0.00839964
-0.00839964
-1.18433e-07
-1.18433e-07
-1.3074e-12
-1.3074e-12
0
0
0
0
0
0
0
0
3.97904e-12
3.97904e-12
-3.97904e-12
-3.97904e-12
-299.992
-299.992
-0.00839964
-0.00839964
-1.18433e-07
-1.18433e-07
-1.3074e-12
-1.3074e-12
0
0
0
0
0
0
0
0
3.97904e-12
3.97904e-12
-3.97904e-12
-3.97904e-12
-299.992
-0.00839964
-1.18433e-07
-1.3074e-12
0
0
0
0
3.97904e-12
-3.97904e-12
-299.992
-0.00839964
-1.18433e-07
-1.3074e-12
0
0
0
0
3.97904e-12
-3.97904e-12
)
;
    }
    inlet
    {
        type            calculated;
        value           uniform -599.966;
    }
    outlet
    {
        type            calculated;
        value           uniform -1.59162e-11;
    }
}


// ************************************************************************* //
