/*--------------------------------*- C++ -*----------------------------------*\
| =========                 |                                                 |
| \\      /  F ield         | OpenFOAM: The Open Source CFD Toolbox           |
|  \\    /   O peration     | Version:  4.0                                   |
|   \\  /    A nd           | Web:      www.OpenFOAM.org                      |
|    \\/     M anipulation  |                                                 |
\*---------------------------------------------------------------------------*/
FoamFile
{
    version     2.0;
    format      ascii;
    class       volScalarField;
    location    "0.2";
    object      gradTz;
}
// * * * * * * * * * * * * * * * * * * * * * * * * * * * * * * * * * * * * * //

dimensions      [0 -1 0 1 0 0 0];

internalField   nonuniform List<scalar> 
40
(
-299.998
-299.998
-299.998
-299.998
-0.00239997
-0.00239997
-0.00239997
-0.00239997
-9.83977e-09
-9.83977e-09
-9.83977e-09
-9.83977e-09
0
0
0
0
0
0
0
0
0
0
0
0
0
0
0
0
0
0
0
0
1.13687e-12
1.13687e-12
1.13687e-12
1.13687e-12
-1.13687e-12
-1.13687e-12
-1.13687e-12
-1.13687e-12
)
;

boundaryField
{
    walls
    {
        type            calculated;
        value           nonuniform List<scalar> 
80
(
-299.998
-0.00239997
-9.83977e-09
0
0
0
0
0
1.13687e-12
-1.13687e-12
-299.998
-0.00239997
-9.83977e-09
0
0
0
0
0
1.13687e-12
-1.13687e-12
-299.998
-299.998
-0.00239997
-0.00239997
-9.83977e-09
-9.83977e-09
0
0
0
0
0
0
0
0
0
0
1.13687e-12
1.13687e-12
-1.13687e-12
-1.13687e-12
-299.998
-299.998
-0.00239997
-0.00239997
-9.83977e-09
-9.83977e-09
0
0
0
0
0
0
0
0
0
0
1.13687e-12
1.13687e-12
-1.13687e-12
-1.13687e-12
-299.998
-0.00239997
-9.83977e-09
0
0
0
0
0
1.13687e-12
-1.13687e-12
-299.998
-0.00239997
-9.83977e-09
0
0
0
0
0
1.13687e-12
-1.13687e-12
)
;
    }
    inlet
    {
        type            calculated;
        value           uniform -599.99;
    }
    outlet
    {
        type            calculated;
        value           uniform -4.54747e-12;
    }
}


// ************************************************************************* //
