/*--------------------------------*- C++ -*----------------------------------*\
| =========                 |                                                 |
| \\      /  F ield         | OpenFOAM: The Open Source CFD Toolbox           |
|  \\    /   O peration     | Version:  4.0                                   |
|   \\  /    A nd           | Web:      www.OpenFOAM.org                      |
|    \\/     M anipulation  |                                                 |
\*---------------------------------------------------------------------------*/
FoamFile
{
    version     2.0;
    format      ascii;
    class       volScalarField;
    location    "1.4";
    object      gradTz;
}
// * * * * * * * * * * * * * * * * * * * * * * * * * * * * * * * * * * * * * //

dimensions      [0 -1 0 1 0 0 0];

internalField   nonuniform List<scalar> 
40
(
-299.983
-299.983
-299.983
-299.983
-0.0167986
-0.0167986
-0.0167986
-0.0167986
-4.72034e-07
-4.72034e-07
-4.72034e-07
-4.72034e-07
-1.01181e-11
-1.01181e-11
-1.01181e-11
-1.01181e-11
0
0
0
0
0
0
0
0
0
0
0
0
0
0
0
0
7.95808e-12
7.95808e-12
7.95808e-12
7.95808e-12
-7.95808e-12
-7.95808e-12
-7.95808e-12
-7.95808e-12
)
;

boundaryField
{
    walls
    {
        type            calculated;
        value           nonuniform List<scalar> 
80
(
-299.983
-0.0167986
-4.72034e-07
-1.01181e-11
0
0
0
0
7.95808e-12
-7.95808e-12
-299.983
-0.0167986
-4.72034e-07
-1.01181e-11
0
0
0
0
7.95808e-12
-7.95808e-12
-299.983
-299.983
-0.0167986
-0.0167986
-4.72034e-07
-4.72034e-07
-1.01181e-11
-1.01181e-11
0
0
0
0
0
0
0
0
7.95808e-12
7.95808e-12
-7.95808e-12
-7.95808e-12
-299.983
-299.983
-0.0167986
-0.0167986
-4.72034e-07
-4.72034e-07
-1.01181e-11
-1.01181e-11
0
0
0
0
0
0
0
0
7.95808e-12
7.95808e-12
-7.95808e-12
-7.95808e-12
-299.983
-0.0167986
-4.72034e-07
-1.01181e-11
0
0
0
0
7.95808e-12
-7.95808e-12
-299.983
-0.0167986
-4.72034e-07
-1.01181e-11
0
0
0
0
7.95808e-12
-7.95808e-12
)
;
    }
    inlet
    {
        type            calculated;
        value           uniform -599.933;
    }
    outlet
    {
        type            calculated;
        value           uniform -3.18323e-11;
    }
}


// ************************************************************************* //
