/*--------------------------------*- C++ -*----------------------------------*\
| =========                 |                                                 |
| \\      /  F ield         | OpenFOAM: The Open Source CFD Toolbox           |
|  \\    /   O peration     | Version:  4.0                                   |
|   \\  /    A nd           | Web:      www.OpenFOAM.org                      |
|    \\/     M anipulation  |                                                 |
\*---------------------------------------------------------------------------*/
FoamFile
{
    version     2.0;
    format      ascii;
    class       volScalarField;
    location    "1.2";
    object      gradTz;
}
// * * * * * * * * * * * * * * * * * * * * * * * * * * * * * * * * * * * * * //

dimensions      [0 -1 0 1 0 0 0];

internalField   nonuniform List<scalar> 
40
(
-299.986
-299.986
-299.986
-299.986
-0.014399
-0.014399
-0.014399
-0.014399
-3.4701e-07
-3.4701e-07
-3.4701e-07
-3.4701e-07
-6.42331e-12
-6.42331e-12
-6.42331e-12
-6.42331e-12
0
0
0
0
0
0
0
0
0
0
0
0
0
0
0
0
6.82121e-12
6.82121e-12
6.82121e-12
6.82121e-12
-6.82121e-12
-6.82121e-12
-6.82121e-12
-6.82121e-12
)
;

boundaryField
{
    walls
    {
        type            calculated;
        value           nonuniform List<scalar> 
80
(
-299.986
-0.014399
-3.4701e-07
-6.42331e-12
0
0
0
0
6.82121e-12
-6.82121e-12
-299.986
-0.014399
-3.4701e-07
-6.42331e-12
0
0
0
0
6.82121e-12
-6.82121e-12
-299.986
-299.986
-0.014399
-0.014399
-3.4701e-07
-3.4701e-07
-6.42331e-12
-6.42331e-12
0
0
0
0
0
0
0
0
6.82121e-12
6.82121e-12
-6.82121e-12
-6.82121e-12
-299.986
-299.986
-0.014399
-0.014399
-3.4701e-07
-3.4701e-07
-6.42331e-12
-6.42331e-12
0
0
0
0
0
0
0
0
6.82121e-12
6.82121e-12
-6.82121e-12
-6.82121e-12
-299.986
-0.014399
-3.4701e-07
-6.42331e-12
0
0
0
0
6.82121e-12
-6.82121e-12
-299.986
-0.014399
-3.4701e-07
-6.42331e-12
0
0
0
0
6.82121e-12
-6.82121e-12
)
;
    }
    inlet
    {
        type            calculated;
        value           uniform -599.942;
    }
    outlet
    {
        type            calculated;
        value           uniform -2.72848e-11;
    }
}


// ************************************************************************* //
