# vtk DataFile Version 2.0
testCase40
ASCII
DATASET UNSTRUCTURED_GRID
POINTS 99 float
0 0 0 0.5 0 0 1 0 0 0 0.5
0 0.5 0.5 0 1 0.5 0 0 1 0
0.5 1 0 1 1 0 0 0 1 0.5
0 1 1 0 1 0 0.5 1 0.5 0.5
1 1 0.5 1 0 1 1 0.5 1 1
1 1 1 0 0 2 0.5 0 2 1
0 2 0 0.5 2 0.5 0.5 2 1 0.5
2 0 1 2 0.5 1 2 1 1 2
0 0 3 0.5 0 3 1 0 3 0
0.5 3 0.5 0.5 3 1 0.5 3 0 1
3 0.5 1 3 1 1 3 0 0 4
0.5 0 4 1 0 4 0 0.5 4 0.5
0.5 4 1 0.5 4 0 1 4 0.5 1
4 1 1 4 0 0 5 0.5 0 5
1 0 5 0 0.5 5 0.5 0.5 5 1
0.5 5 0 1 5 0.5 1 5 1 1
5 0 0 6 0.5 0 6 1 0 6
0 0.5 6 0.5 0.5 6 1 0.5 6 0
1 6 0.5 1 6 1 1 6 0 0
7 0.5 0 7 1 0 7 0 0.5 7
0.5 0.5 7 1 0.5 7 0 1 7 0.5
1 7 1 1 7 0 0 8 0.5 0
8 1 0 8 0 0.5 8 0.5 0.5 8
1 0.5 8 0 1 8 0.5 1 8 1
1 8 0 0 9 0.5 0 9 1 0
9 0 0.5 9 0.5 0.5 9 1 0.5 9
0 1 9 0.5 1 9 1 1 9 0
0 10 0.5 0 10 1 0 10 0 0.5
10 0.5 0.5 10 1 0.5 10 0 1 10
0.5 1 10 1 1 10 
CELLS 40 360
8 1 10 13 4 0 9 12 3 8 4
5 14 13 1 2 11 10 8 4 13
16 7 3 12 15 6 8 13 16 17
14 4 7 8 5 8 10 19 22 13
9 18 21 12 8 13 14 23 22 10
11 20 19 8 13 22 25 16 12 21
24 15 8 22 25 26 23 13 16 17
14 8 19 28 31 22 18 27 30 21
8 22 23 32 31 19 20 29 28 8
22 31 34 25 21 30 33 24 8 31
34 35 32 22 25 26 23 8 28 37
40 31 27 36 39 30 8 31 32 41
40 28 29 38 37 8 31 40 43 34
30 39 42 33 8 40 43 44 41 31
34 35 32 8 37 46 49 40 36 45
48 39 8 40 41 50 49 37 38 47
46 8 40 49 52 43 39 48 51 42
8 49 52 53 50 40 43 44 41 8
46 55 58 49 45 54 57 48 8 49
50 59 58 46 47 56 55 8 49 58
61 52 48 57 60 51 8 58 61 62
59 49 52 53 50 8 55 64 67 58
54 63 66 57 8 58 59 68 67 55
56 65 64 8 58 67 70 61 57 66
69 60 8 67 70 71 68 58 61 62
59 8 64 73 76 67 63 72 75 66
8 67 68 77 76 64 65 74 73 8
67 76 79 70 66 75 78 69 8 76
79 80 77 67 70 71 68 8 73 82
85 76 72 81 84 75 8 76 77 86
85 73 74 83 82 8 76 85 88 79
75 84 87 78 8 85 88 89 86 76
79 80 77 8 82 91 94 85 81 90
93 84 8 85 86 95 94 82 83 92
91 8 85 94 97 88 84 93 96 87
8 88 89 98 97 85 86 95 94 
CELL_TYPES 40
12 12 12 12 12 12 12 12 12 12 12
12 12 12 12 12 12 12 12 12 12
12 12 12 12 12 12 12 12 12 12
12 12 12 12 12 12 12 12 12 
CELL_DATA 40
FIELD attributes 5
cellID 1 40 int
0 1 2 3 4 5 6 7 8 9 10
11 12 13 14 15 16 17 18 19 20
21 22 23 24 25 26 27 28 29 30
31 32 33 34 35 36 37 38 39 
gradTy 1 40 float
0 0 0 0 0 0 0 0 0 0 0
0 0 0 0 0 0 0 0 0 0
0 0 0 0 0 0 0 0 0 0
0 0 0 0 0 0 0 0 0 
gradTx 1 40 float
0 0 0 0 0 0 0 0 0 0 0
0 0 0 0 0 0 0 0 0 0
0 0 0 0 0 0 0 0 0 0
0 0 0 0 0 0 0 0 0 
T 1 40 float
273.043 273.043 273.043 273.043 273 273 273 273 273 273 273
273 273 273 273 273 273 273 273 273 273
273 273 273 273 273 273 273 273 273 273
273 273 273 273 273 273 273 273 273 
gradTz 1 40 float
-299.978 -299.978 -299.978 -299.978 -0.0215977 -0.0215977 -0.0215977 -0.0215977 -7.79663e-07 -7.79663e-07 -7.79663e-07
-7.79663e-07 -2.09184e-11 -2.09184e-11 -2.09184e-11 -2.09184e-11 0 0 0 0 0
0 0 0 0 0 0 0 0 0 0
0 1.02318e-11 1.02318e-11 1.02318e-11 1.02318e-11 -1.02318e-11 -1.02318e-11 -1.02318e-11 -1.02318e-11 
POINT_DATA  99
FIELD attributes 4
gradTy 1 99 float
0 0 0 0 0 0 0 0 0 0 0
0 0 0 0 0 0 0 0 0 0
0 0 0 0 0 0 0 0 0 0
0 0 0 0 0 0 0 0 0 0
0 0 0 0 0 0 0 0 0 0
0 0 0 0 0 0 0 0 0 0
0 0 0 0 0 0 0 0 0 0
0 0 0 0 0 0 0 0 0 0
0 0 0 0 0 0 0 0 0 0
0 0 0 0 0 0 0 0 
gradTx 1 99 float
0 0 0 0 0 0 0 0 0 0 0
0 0 0 0 0 0 0 0 0 0
0 0 0 0 0 0 0 0 0 0
0 0 0 0 0 0 0 0 0 0
0 0 0 0 0 0 0 0 0 0
0 0 0 0 0 0 0 0 0 0
0 0 0 0 0 0 0 0 0 0
0 0 0 0 0 0 0 0 0 0
0 0 0 0 0 0 0 0 0 0
0 0 0 0 0 0 0 0 
T 1 99 float
405.48 456.789 405.48 456.789 573 456.789 405.48 456.789 405.48 273.022 273.022
273.022 273.022 273.022 273.022 273.022 273.022 273.022 273 273 273
273 273 273 273 273 273 273 273 273 273
273 273 273 273 273 273 273 273 273 273
273 273 273 273 273 273 273 273 273 273
273 273 273 273 273 273 273 273 273 273
273 273 273 273 273 273 273 273 273 273
273 273 273 273 273 273 273 273 273 273
273 273 273 273 273 273 273 273 273 273
273 273 273 273 273 273 273 273 
gradTz 1 99 float
-432.405 -483.711 -432.405 -483.711 -599.914 -483.711 -432.405 -483.711 -432.405 -150 -150
-150 -150 -150 -150 -150 -150 -150 -0.0107992 -0.0107992 -0.0107992
-0.0107992 -0.0107992 -0.0107992 -0.0107992 -0.0107992 -0.0107992 -3.89842e-07 -3.89842e-07 -3.89842e-07 -3.89842e-07
-3.89842e-07 -3.89842e-07 -3.89842e-07 -3.89842e-07 -3.89842e-07 -1.04592e-11 -1.04592e-11 -1.04592e-11 -1.04592e-11 -1.04592e-11
-1.04592e-11 -1.04592e-11 -1.04592e-11 -1.04592e-11 0 0 0 0 0 0
0 0 0 0 0 0 0 0 0 0
0 0 0 0 0 0 0 0 0 0
0 5.1159e-12 5.1159e-12 5.1159e-12 5.1159e-12 5.1159e-12 5.1159e-12 5.1159e-12 5.1159e-12 5.1159e-12
0 0 0 0 4.03897e-28 0 0 0 0 -2.37844e-11
-2.90351e-11 -2.37844e-11 -2.90351e-11 -4.09273e-11 -2.90351e-11 -2.37844e-11 -2.90351e-11 -2.37844e-11 
