/*--------------------------------*- C++ -*----------------------------------*\
| =========                 |                                                 |
| \\      /  F ield         | OpenFOAM: The Open Source CFD Toolbox           |
|  \\    /   O peration     | Version:  4.0                                   |
|   \\  /    A nd           | Web:      www.OpenFOAM.org                      |
|    \\/     M anipulation  |                                                 |
\*---------------------------------------------------------------------------*/
FoamFile
{
    version     2.0;
    format      ascii;
    class       volScalarField;
    location    "1.1";
    object      gradTz;
}
// * * * * * * * * * * * * * * * * * * * * * * * * * * * * * * * * * * * * * //

dimensions      [0 -1 0 1 0 0 0];

internalField   nonuniform List<scalar> 
40
(
-299.987
-299.987
-299.987
-299.987
-0.0131991
-0.0131991
-0.0131991
-0.0131991
-2.91697e-07
-2.91697e-07
-2.91697e-07
-2.91697e-07
-5.00222e-12
-5.00222e-12
-5.00222e-12
-5.00222e-12
0
0
0
0
0
0
0
0
0
0
0
0
0
0
0
0
6.25278e-12
6.25278e-12
6.25278e-12
6.25278e-12
-6.25278e-12
-6.25278e-12
-6.25278e-12
-6.25278e-12
)
;

boundaryField
{
    walls
    {
        type            calculated;
        value           nonuniform List<scalar> 
80
(
-299.987
-0.0131991
-2.91697e-07
-5.00222e-12
0
0
0
0
6.25278e-12
-6.25278e-12
-299.987
-0.0131991
-2.91697e-07
-5.00222e-12
0
0
0
0
6.25278e-12
-6.25278e-12
-299.987
-299.987
-0.0131991
-0.0131991
-2.91697e-07
-2.91697e-07
-5.00222e-12
-5.00222e-12
0
0
0
0
0
0
0
0
6.25278e-12
6.25278e-12
-6.25278e-12
-6.25278e-12
-299.987
-299.987
-0.0131991
-0.0131991
-2.91697e-07
-2.91697e-07
-5.00222e-12
-5.00222e-12
0
0
0
0
0
0
0
0
6.25278e-12
6.25278e-12
-6.25278e-12
-6.25278e-12
-299.987
-0.0131991
-2.91697e-07
-5.00222e-12
0
0
0
0
6.25278e-12
-6.25278e-12
-299.987
-0.0131991
-2.91697e-07
-5.00222e-12
0
0
0
0
6.25278e-12
-6.25278e-12
)
;
    }
    inlet
    {
        type            calculated;
        value           uniform -599.947;
    }
    outlet
    {
        type            calculated;
        value           uniform -2.50111e-11;
    }
}


// ************************************************************************* //
