/*--------------------------------*- C++ -*----------------------------------*\
| =========                 |                                                 |
| \\      /  F ield         | OpenFOAM: The Open Source CFD Toolbox           |
|  \\    /   O peration     | Version:  4.0                                   |
|   \\  /    A nd           | Web:      www.OpenFOAM.org                      |
|    \\/     M anipulation  |                                                 |
\*---------------------------------------------------------------------------*/
FoamFile
{
    version     2.0;
    format      ascii;
    class       volScalarField;
    location    "0.5";
    object      gradTz;
}
// * * * * * * * * * * * * * * * * * * * * * * * * * * * * * * * * * * * * * //

dimensions      [0 -1 0 1 0 0 0];

internalField   nonuniform List<scalar> 
40
(
-299.994
-299.994
-299.994
-299.994
-0.00599982
-0.00599982
-0.00599982
-0.00599982
-6.05973e-08
-6.05973e-08
-6.05973e-08
-6.05973e-08
-1.7053e-13
-1.7053e-13
-1.7053e-13
-1.7053e-13
0
0
0
0
0
0
0
0
0
0
0
0
0
0
0
0
2.84217e-12
2.84217e-12
2.84217e-12
2.84217e-12
-2.84217e-12
-2.84217e-12
-2.84217e-12
-2.84217e-12
)
;

boundaryField
{
    walls
    {
        type            calculated;
        value           nonuniform List<scalar> 
80
(
-299.994
-0.00599982
-6.05973e-08
-1.7053e-13
0
0
0
0
2.84217e-12
-2.84217e-12
-299.994
-0.00599982
-6.05973e-08
-1.7053e-13
0
0
0
0
2.84217e-12
-2.84217e-12
-299.994
-299.994
-0.00599982
-0.00599982
-6.05973e-08
-6.05973e-08
-1.7053e-13
-1.7053e-13
0
0
0
0
0
0
0
0
2.84217e-12
2.84217e-12
-2.84217e-12
-2.84217e-12
-299.994
-299.994
-0.00599982
-0.00599982
-6.05973e-08
-6.05973e-08
-1.7053e-13
-1.7053e-13
0
0
0
0
0
0
0
0
2.84217e-12
2.84217e-12
-2.84217e-12
-2.84217e-12
-299.994
-0.00599982
-6.05973e-08
-1.7053e-13
0
0
0
0
2.84217e-12
-2.84217e-12
-299.994
-0.00599982
-6.05973e-08
-1.7053e-13
0
0
0
0
2.84217e-12
-2.84217e-12
)
;
    }
    inlet
    {
        type            calculated;
        value           uniform -599.976;
    }
    outlet
    {
        type            calculated;
        value           uniform -1.13687e-11;
    }
}


// ************************************************************************* //
