/*--------------------------------*- C++ -*----------------------------------*\
| =========                 |                                                 |
| \\      /  F ield         | OpenFOAM: The Open Source CFD Toolbox           |
|  \\    /   O peration     | Version:  4.0                                   |
|   \\  /    A nd           | Web:      www.OpenFOAM.org                      |
|    \\/     M anipulation  |                                                 |
\*---------------------------------------------------------------------------*/
FoamFile
{
    version     2.0;
    format      ascii;
    class       volScalarField;
    location    "0.9";
    object      gradTz;
}
// * * * * * * * * * * * * * * * * * * * * * * * * * * * * * * * * * * * * * //

dimensions      [0 -1 0 1 0 0 0];

internalField   nonuniform List<scalar> 
40
(
-299.989
-299.989
-299.989
-299.989
-0.0107994
-0.0107994
-0.0107994
-0.0107994
-1.95467e-07
-1.95467e-07
-1.95467e-07
-1.95467e-07
-2.72848e-12
-2.72848e-12
-2.72848e-12
-2.72848e-12
0
0
0
0
0
0
0
0
0
0
0
0
0
0
0
0
5.11591e-12
5.11591e-12
5.11591e-12
5.11591e-12
-5.11591e-12
-5.11591e-12
-5.11591e-12
-5.11591e-12
)
;

boundaryField
{
    walls
    {
        type            calculated;
        value           nonuniform List<scalar> 
80
(
-299.989
-0.0107994
-1.95467e-07
-2.72848e-12
0
0
0
0
5.11591e-12
-5.11591e-12
-299.989
-0.0107994
-1.95467e-07
-2.72848e-12
0
0
0
0
5.11591e-12
-5.11591e-12
-299.989
-299.989
-0.0107994
-0.0107994
-1.95467e-07
-1.95467e-07
-2.72848e-12
-2.72848e-12
0
0
0
0
0
0
0
0
5.11591e-12
5.11591e-12
-5.11591e-12
-5.11591e-12
-299.989
-299.989
-0.0107994
-0.0107994
-1.95467e-07
-1.95467e-07
-2.72848e-12
-2.72848e-12
0
0
0
0
0
0
0
0
5.11591e-12
5.11591e-12
-5.11591e-12
-5.11591e-12
-299.989
-0.0107994
-1.95467e-07
-2.72848e-12
0
0
0
0
5.11591e-12
-5.11591e-12
-299.989
-0.0107994
-1.95467e-07
-2.72848e-12
0
0
0
0
5.11591e-12
-5.11591e-12
)
;
    }
    inlet
    {
        type            calculated;
        value           uniform -599.957;
    }
    outlet
    {
        type            calculated;
        value           uniform -2.04636e-11;
    }
}


// ************************************************************************* //
