/*--------------------------------*- C++ -*----------------------------------*\
| =========                 |                                                 |
| \\      /  F ield         | OpenFOAM: The Open Source CFD Toolbox           |
|  \\    /   O peration     | Version:  4.0                                   |
|   \\  /    A nd           | Web:      www.OpenFOAM.org                      |
|    \\/     M anipulation  |                                                 |
\*---------------------------------------------------------------------------*/
FoamFile
{
    version     2.0;
    format      ascii;
    class       volScalarField;
    location    "0.6";
    object      gradTz;
}
// * * * * * * * * * * * * * * * * * * * * * * * * * * * * * * * * * * * * * //

dimensions      [0 -1 0 1 0 0 0];

internalField   nonuniform List<scalar> 
40
(
-299.993
-299.993
-299.993
-299.993
-0.00719974
-0.00719974
-0.00719974
-0.00719974
-8.71156e-08
-8.71156e-08
-8.71156e-08
-8.71156e-08
-7.38964e-13
-7.38964e-13
-7.38964e-13
-7.38964e-13
0
0
0
0
0
0
0
0
0
0
0
0
0
0
0
0
3.41061e-12
3.41061e-12
3.41061e-12
3.41061e-12
-3.41061e-12
-3.41061e-12
-3.41061e-12
-3.41061e-12
)
;

boundaryField
{
    walls
    {
        type            calculated;
        value           nonuniform List<scalar> 
80
(
-299.993
-0.00719974
-8.71156e-08
-7.38964e-13
0
0
0
0
3.41061e-12
-3.41061e-12
-299.993
-0.00719974
-8.71156e-08
-7.38964e-13
0
0
0
0
3.41061e-12
-3.41061e-12
-299.993
-299.993
-0.00719974
-0.00719974
-8.71156e-08
-8.71156e-08
-7.38964e-13
-7.38964e-13
0
0
0
0
0
0
0
0
3.41061e-12
3.41061e-12
-3.41061e-12
-3.41061e-12
-299.993
-299.993
-0.00719974
-0.00719974
-8.71156e-08
-8.71156e-08
-7.38964e-13
-7.38964e-13
0
0
0
0
0
0
0
0
3.41061e-12
3.41061e-12
-3.41061e-12
-3.41061e-12
-299.993
-0.00719974
-8.71156e-08
-7.38964e-13
0
0
0
0
3.41061e-12
-3.41061e-12
-299.993
-0.00719974
-8.71156e-08
-7.38964e-13
0
0
0
0
3.41061e-12
-3.41061e-12
)
;
    }
    inlet
    {
        type            calculated;
        value           uniform -599.971;
    }
    outlet
    {
        type            calculated;
        value           uniform -1.36424e-11;
    }
}


// ************************************************************************* //
