/*--------------------------------*- C++ -*----------------------------------*\
| =========                 |                                                 |
| \\      /  F ield         | OpenFOAM: The Open Source CFD Toolbox           |
|  \\    /   O peration     | Version:  4.0                                   |
|   \\  /    A nd           | Web:      www.OpenFOAM.org                      |
|    \\/     M anipulation  |                                                 |
\*---------------------------------------------------------------------------*/
FoamFile
{
    version     2.0;
    format      ascii;
    class       volScalarField;
    location    "1.5";
    object      gradTz;
}
// * * * * * * * * * * * * * * * * * * * * * * * * * * * * * * * * * * * * * //

dimensions      [0 -1 0 1 0 0 0];

internalField   nonuniform List<scalar> 
40
(
-299.982
-299.982
-299.982
-299.982
-0.0179984
-0.0179984
-0.0179984
-0.0179984
-5.41743e-07
-5.41743e-07
-5.41743e-07
-5.41743e-07
-1.23919e-11
-1.23919e-11
-1.23919e-11
-1.23919e-11
0
0
0
0
0
0
0
0
0
0
0
0
0
0
0
0
8.52651e-12
8.52651e-12
8.52651e-12
8.52651e-12
-8.52651e-12
-8.52651e-12
-8.52651e-12
-8.52651e-12
)
;

boundaryField
{
    walls
    {
        type            calculated;
        value           nonuniform List<scalar> 
80
(
-299.982
-0.0179984
-5.41743e-07
-1.23919e-11
0
0
0
0
8.52651e-12
-8.52651e-12
-299.982
-0.0179984
-5.41743e-07
-1.23919e-11
0
0
0
0
8.52651e-12
-8.52651e-12
-299.982
-299.982
-0.0179984
-0.0179984
-5.41743e-07
-5.41743e-07
-1.23919e-11
-1.23919e-11
0
0
0
0
0
0
0
0
8.52651e-12
8.52651e-12
-8.52651e-12
-8.52651e-12
-299.982
-299.982
-0.0179984
-0.0179984
-5.41743e-07
-5.41743e-07
-1.23919e-11
-1.23919e-11
0
0
0
0
0
0
0
0
8.52651e-12
8.52651e-12
-8.52651e-12
-8.52651e-12
-299.982
-0.0179984
-5.41743e-07
-1.23919e-11
0
0
0
0
8.52651e-12
-8.52651e-12
-299.982
-0.0179984
-5.41743e-07
-1.23919e-11
0
0
0
0
8.52651e-12
-8.52651e-12
)
;
    }
    inlet
    {
        type            calculated;
        value           uniform -599.928;
    }
    outlet
    {
        type            calculated;
        value           uniform -3.41061e-11;
    }
}


// ************************************************************************* //
